# y+ ()       
# Time        	patch         	min           	max           	average       
0             	bodyWall	0.000000e+00	0.000000e+00	0.000000e+00
0             	actuatorSlot_top	0.000000e+00	0.000000e+00	0.000000e+00
0             	actuatorSlot_bottom	0.000000e+00	0.000000e+00	0.000000e+00
0.3           	bodyWall	1.889088e-01	6.223838e+00	2.945781e+00
0.3           	actuatorSlot_top	6.026182e+00	6.071051e+00	6.040278e+00
0.3           	actuatorSlot_bottom	6.026489e+00	6.071558e+00	6.040658e+00
0.6           	bodyWall	2.001095e-01	5.928689e+00	2.593495e+00
0.6           	actuatorSlot_top	5.149336e+00	5.335046e+00	5.224590e+00
0.6           	actuatorSlot_bottom	5.149629e+00	5.335589e+00	5.225018e+00
0.9           	bodyWall	2.410057e-01	5.692300e+00	2.320366e+00
0.9           	actuatorSlot_top	4.129862e+00	4.537287e+00	4.320938e+00
0.9           	actuatorSlot_bottom	4.130462e+00	4.537853e+00	4.321541e+00
1.2           	bodyWall	2.361651e-01	5.515580e+00	2.137950e+00
1.2           	actuatorSlot_top	3.205400e+00	3.820785e+00	3.502779e+00
1.2           	actuatorSlot_bottom	3.206537e+00	3.821667e+00	3.503819e+00
1.5           	bodyWall	2.306841e-01	5.368792e+00	1.974208e+00
1.5           	actuatorSlot_top	2.381746e+00	3.176714e+00	2.772836e+00
1.5           	actuatorSlot_bottom	2.382681e+00	3.177313e+00	2.773624e+00
1.8           	bodyWall	2.058410e-01	5.257672e+00	1.873241e+00
1.8           	actuatorSlot_top	1.637418e+00	2.628035e+00	2.136450e+00
1.8           	actuatorSlot_bottom	1.638913e+00	2.628867e+00	2.137612e+00
2.1           	bodyWall	1.813795e-01	5.168033e+00	1.798827e+00
2.1           	actuatorSlot_top	9.005980e-01	2.178168e+00	1.575721e+00
2.1           	actuatorSlot_bottom	9.018352e-01	2.178607e+00	1.576490e+00
2.4           	bodyWall	1.822234e-01	5.093810e+00	1.735429e+00
2.4           	actuatorSlot_top	3.403701e-01	1.813846e+00	1.096426e+00
2.4           	actuatorSlot_bottom	3.390052e-01	1.814374e+00	1.096882e+00
2.7           	bodyWall	2.260964e-01	5.023607e+00	1.694144e+00
2.7           	actuatorSlot_top	3.663150e-01	1.437306e+00	9.278562e-01
2.7           	actuatorSlot_bottom	3.667897e-01	1.438092e+00	9.280158e-01
3             	bodyWall	8.608289e-02	4.958732e+00	1.651256e+00
3             	actuatorSlot_top	4.378426e-01	1.459797e+00	9.559646e-01
3             	actuatorSlot_bottom	4.366663e-01	1.459199e+00	9.557607e-01
3.3           	bodyWall	1.581698e-01	4.905518e+00	1.617121e+00
3.3           	actuatorSlot_top	3.134284e-01	1.602806e+00	1.049939e+00
3.3           	actuatorSlot_bottom	3.148250e-01	1.602401e+00	1.049707e+00
3.6           	bodyWall	1.171042e-01	4.862433e+00	1.583012e+00
3.6           	actuatorSlot_top	3.148460e-01	1.678748e+00	1.160360e+00
3.6           	actuatorSlot_bottom	3.157173e-01	1.678417e+00	1.159991e+00
3.9           	bodyWall	2.215910e-01	4.823317e+00	1.548729e+00
3.9           	actuatorSlot_top	5.978981e-01	1.732176e+00	1.290568e+00
3.9           	actuatorSlot_bottom	5.968807e-01	1.731827e+00	1.289987e+00
4.2           	bodyWall	1.078938e-01	4.780131e+00	1.529123e+00
4.2           	actuatorSlot_top	8.649402e-01	1.786388e+00	1.418466e+00
4.2           	actuatorSlot_bottom	8.641480e-01	1.786070e+00	1.417957e+00
4.5           	bodyWall	6.322410e-02	4.740210e+00	1.505797e+00
4.5           	actuatorSlot_top	1.033499e+00	1.815470e+00	1.502869e+00
4.5           	actuatorSlot_bottom	1.032980e+00	1.815244e+00	1.502516e+00
4.8           	bodyWall	1.659424e-01	4.708454e+00	1.493134e+00
4.8           	actuatorSlot_top	1.128199e+00	1.826257e+00	1.548538e+00
4.8           	actuatorSlot_bottom	1.127986e+00	1.826135e+00	1.548373e+00
5.1           	bodyWall	1.555751e-01	4.682958e+00	1.478073e+00
5.1           	actuatorSlot_top	1.185365e+00	1.827569e+00	1.573633e+00
5.1           	actuatorSlot_bottom	1.185203e+00	1.827470e+00	1.573503e+00
5.4           	bodyWall	1.027091e-01	4.660897e+00	1.457670e+00
5.4           	actuatorSlot_top	1.230064e+00	1.827443e+00	1.592852e+00
5.4           	actuatorSlot_bottom	1.229879e+00	1.827346e+00	1.592713e+00
5.7           	bodyWall	5.371980e-02	4.640087e+00	1.447941e+00
5.7           	actuatorSlot_top	1.273517e+00	1.827875e+00	1.612127e+00
5.7           	actuatorSlot_bottom	1.273275e+00	1.827776e+00	1.611960e+00
6             	bodyWall	1.222372e-01	4.618417e+00	1.431206e+00
6             	actuatorSlot_top	1.321648e+00	1.828041e+00	1.633587e+00
6             	actuatorSlot_bottom	1.321385e+00	1.827942e+00	1.633411e+00
6.3           	bodyWall	5.226560e-02	4.596024e+00	1.422745e+00
6.3           	actuatorSlot_top	1.367171e+00	1.824806e+00	1.652471e+00
6.3           	actuatorSlot_bottom	1.366958e+00	1.824732e+00	1.652329e+00
6.6           	bodyWall	5.523161e-02	4.576942e+00	1.413257e+00
6.6           	actuatorSlot_top	1.392486e+00	1.813479e+00	1.658342e+00
6.6           	actuatorSlot_bottom	1.392374e+00	1.813445e+00	1.658266e+00
6.9           	bodyWall	6.461834e-02	4.562261e+00	1.408098e+00
6.9           	actuatorSlot_top	1.404828e+00	1.803217e+00	1.658786e+00
6.9           	actuatorSlot_bottom	1.404766e+00	1.803180e+00	1.658734e+00
7.2           	bodyWall	1.519265e-01	4.548861e+00	1.405192e+00
7.2           	actuatorSlot_top	1.418362e+00	1.795074e+00	1.660952e+00
7.2           	actuatorSlot_bottom	1.418291e+00	1.795027e+00	1.660890e+00
7.5           	bodyWall	5.259648e-02	4.535366e+00	1.408428e+00
7.5           	actuatorSlot_top	1.434046e+00	1.786398e+00	1.663859e+00
7.5           	actuatorSlot_bottom	1.433951e+00	1.786356e+00	1.663788e+00
7.8           	bodyWall	3.716185e-02	4.524158e+00	1.422993e+00
7.8           	actuatorSlot_top	1.442792e+00	1.777023e+00	1.663042e+00
7.8           	actuatorSlot_bottom	1.442693e+00	1.777000e+00	1.662980e+00
8.1           	bodyWall	1.116667e-01	4.516693e+00	1.442151e+00
8.1           	actuatorSlot_top	1.443573e+00	1.770128e+00	1.659742e+00
8.1           	actuatorSlot_bottom	1.443480e+00	1.770122e+00	1.659692e+00
8.4           	bodyWall	1.815873e-01	4.509931e+00	1.448590e+00
8.4           	actuatorSlot_top	1.445538e+00	1.765557e+00	1.658168e+00
8.4           	actuatorSlot_bottom	1.445436e+00	1.765555e+00	1.658115e+00
8.7           	bodyWall	1.284981e-01	4.501274e+00	1.448374e+00
8.7           	actuatorSlot_top	1.453910e+00	1.760647e+00	1.659468e+00
8.7           	actuatorSlot_bottom	1.453794e+00	1.760646e+00	1.659409e+00
9             	bodyWall	9.487765e-02	4.488645e+00	1.447982e+00
9             	actuatorSlot_top	1.470726e+00	1.754009e+00	1.663512e+00
9             	actuatorSlot_bottom	1.470618e+00	1.753992e+00	1.663453e+00
9.3           	bodyWall	6.620829e-02	4.472558e+00	1.437245e+00
9.3           	actuatorSlot_top	1.490262e+00	1.744527e+00	1.666252e+00
9.3           	actuatorSlot_bottom	1.490179e+00	1.744505e+00	1.666200e+00
9.6           	bodyWall	1.398573e-01	4.454820e+00	1.441147e+00
9.6           	actuatorSlot_top	1.506966e+00	1.732195e+00	1.665834e+00
9.6           	actuatorSlot_bottom	1.506916e+00	1.732151e+00	1.665786e+00
9.9           	bodyWall	1.270854e-01	4.436954e+00	1.433265e+00
9.9           	actuatorSlot_top	1.518510e+00	1.720269e+00	1.662292e+00
9.9           	actuatorSlot_bottom	1.518470e+00	1.720204e+00	1.662234e+00
10.2          	bodyWall	1.175119e-01	4.415794e+00	1.442287e+00
10.2          	actuatorSlot_top	1.532611e+00	1.706982e+00	1.658653e+00
10.2          	actuatorSlot_bottom	1.532543e+00	1.706883e+00	1.658563e+00
10.5          	bodyWall	5.863574e-02	4.389052e+00	1.463126e+00
10.5          	actuatorSlot_top	1.549013e+00	1.691110e+00	1.652093e+00
10.5          	actuatorSlot_bottom	1.548857e+00	1.690970e+00	1.651949e+00
10.8          	bodyWall	1.328216e-01	4.681745e+00	1.564676e+00
10.8          	actuatorSlot_top	1.563241e+00	1.670901e+00	1.639724e+00
10.8          	actuatorSlot_bottom	1.563035e+00	1.670760e+00	1.639576e+00
11.1          	bodyWall	7.385761e-02	4.516526e+00	1.624775e+00
11.1          	actuatorSlot_top	1.565617e+00	1.644039e+00	1.617009e+00
11.1          	actuatorSlot_bottom	1.565435e+00	1.643923e+00	1.616904e+00
11.4          	bodyWall	1.898005e-01	4.294101e+00	1.639868e+00
11.4          	actuatorSlot_top	1.546482e+00	1.618926e+00	1.591524e+00
11.4          	actuatorSlot_bottom	1.546498e+00	1.618854e+00	1.591461e+00
11.7          	bodyWall	1.537058e-01	4.269922e+00	1.622886e+00
11.7          	actuatorSlot_top	1.514937e+00	1.596760e+00	1.569099e+00
11.7          	actuatorSlot_bottom	1.514972e+00	1.596714e+00	1.569061e+00
12            	bodyWall	1.575111e-01	4.252157e+00	1.590777e+00
12            	actuatorSlot_top	1.493231e+00	1.579978e+00	1.551815e+00
12            	actuatorSlot_bottom	1.493286e+00	1.579952e+00	1.551808e+00
12.3          	bodyWall	1.398307e-01	4.243615e+00	1.570331e+00
12.3          	actuatorSlot_top	1.483009e+00	1.568182e+00	1.540408e+00
12.3          	actuatorSlot_bottom	1.483057e+00	1.568187e+00	1.540424e+00
12.6          	bodyWall	9.509314e-02	4.248286e+00	1.532659e+00
12.6          	actuatorSlot_top	1.492733e+00	1.566358e+00	1.539363e+00
12.6          	actuatorSlot_bottom	1.492768e+00	1.566402e+00	1.539404e+00
12.9          	bodyWall	1.627848e-01	4.261250e+00	1.486061e+00
12.9          	actuatorSlot_top	1.500671e+00	1.575768e+00	1.549532e+00
12.9          	actuatorSlot_bottom	1.500713e+00	1.575794e+00	1.549554e+00
13.2          	bodyWall	1.120143e-01	4.266406e+00	1.473919e+00
13.2          	actuatorSlot_top	1.503748e+00	1.586857e+00	1.559780e+00
13.2          	actuatorSlot_bottom	1.503727e+00	1.586839e+00	1.559762e+00
13.5          	bodyWall	1.100673e-01	4.255416e+00	1.465903e+00
13.5          	actuatorSlot_top	1.512563e+00	1.585114e+00	1.558988e+00
13.5          	actuatorSlot_bottom	1.512475e+00	1.585073e+00	1.558953e+00
13.8          	bodyWall	3.349221e-02	4.233628e+00	1.455176e+00
13.8          	actuatorSlot_top	1.497233e+00	1.570938e+00	1.544225e+00
13.8          	actuatorSlot_bottom	1.497322e+00	1.570926e+00	1.544223e+00
14.1          	bodyWall	5.032312e-02	4.213876e+00	1.439118e+00
14.1          	actuatorSlot_top	1.463214e+00	1.550628e+00	1.522518e+00
14.1          	actuatorSlot_bottom	1.463376e+00	1.550664e+00	1.522583e+00
14.4          	bodyWall	1.212910e-01	4.201754e+00	1.431006e+00
14.4          	actuatorSlot_top	1.443848e+00	1.536020e+00	1.506840e+00
14.4          	actuatorSlot_bottom	1.444023e+00	1.536099e+00	1.506941e+00
14.7          	bodyWall	3.855800e-02	4.196539e+00	1.413116e+00
14.7          	actuatorSlot_top	1.440539e+00	1.529622e+00	1.501184e+00
14.7          	actuatorSlot_bottom	1.440691e+00	1.529716e+00	1.501291e+00
15            	bodyWall	6.576872e-02	4.191683e+00	1.399837e+00
15            	actuatorSlot_top	1.439893e+00	1.527513e+00	1.499443e+00
15            	actuatorSlot_bottom	1.440001e+00	1.527588e+00	1.499526e+00
15.3          	bodyWall	7.063614e-02	4.182031e+00	1.390191e+00
15.3          	actuatorSlot_top	1.429153e+00	1.522526e+00	1.493152e+00
15.3          	actuatorSlot_bottom	1.429219e+00	1.522568e+00	1.493200e+00
15.6          	bodyWall	6.988109e-02	4.168366e+00	1.376877e+00
15.6          	actuatorSlot_top	1.408270e+00	1.511665e+00	1.479972e+00
15.6          	actuatorSlot_bottom	1.408306e+00	1.511683e+00	1.479995e+00
15.9          	bodyWall	6.828207e-02	4.154346e+00	1.371852e+00
15.9          	actuatorSlot_top	1.385399e+00	1.497825e+00	1.464044e+00
15.9          	actuatorSlot_bottom	1.385428e+00	1.497839e+00	1.464061e+00
16.2          	bodyWall	4.589608e-02	4.142162e+00	1.368955e+00
16.2          	actuatorSlot_top	1.367500e+00	1.486775e+00	1.450545e+00
16.2          	actuatorSlot_bottom	1.367523e+00	1.486786e+00	1.450561e+00
16.5          	bodyWall	2.215513e-02	4.130134e+00	1.366053e+00
16.5          	actuatorSlot_top	1.351679e+00	1.477142e+00	1.438625e+00
16.5          	actuatorSlot_bottom	1.351705e+00	1.477148e+00	1.438638e+00
16.8          	bodyWall	1.658880e-01	4.115971e+00	1.364969e+00
16.8          	actuatorSlot_top	1.332307e+00	1.466595e+00	1.424786e+00
16.8          	actuatorSlot_bottom	1.332337e+00	1.466594e+00	1.424796e+00
17.1          	bodyWall	3.440398e-02	4.099198e+00	1.357114e+00
17.1          	actuatorSlot_top	1.306838e+00	1.452237e+00	1.406180e+00
17.1          	actuatorSlot_bottom	1.306862e+00	1.452236e+00	1.406187e+00
17.4          	bodyWall	1.225831e-01	4.081733e+00	1.350583e+00
17.4          	actuatorSlot_top	1.277910e+00	1.436550e+00	1.384112e+00
17.4          	actuatorSlot_bottom	1.277919e+00	1.436543e+00	1.384110e+00
17.7          	bodyWall	1.402801e-01	4.068851e+00	1.346500e+00
17.7          	actuatorSlot_top	1.256796e+00	1.421790e+00	1.366209e+00
17.7          	actuatorSlot_bottom	1.256782e+00	1.421785e+00	1.366198e+00
18            	bodyWall	4.927707e-02	4.064551e+00	1.337862e+00
18            	actuatorSlot_top	1.253374e+00	1.413820e+00	1.360361e+00
18            	actuatorSlot_bottom	1.253330e+00	1.413818e+00	1.360338e+00
18.3          	bodyWall	9.354575e-02	4.067148e+00	1.323288e+00
18.3          	actuatorSlot_top	1.265698e+00	1.414340e+00	1.366420e+00
18.3          	actuatorSlot_bottom	1.265619e+00	1.414331e+00	1.366380e+00
18.6          	bodyWall	1.270896e-01	4.070074e+00	1.318801e+00
18.6          	actuatorSlot_top	1.279788e+00	1.419582e+00	1.375490e+00
18.6          	actuatorSlot_bottom	1.279686e+00	1.419540e+00	1.375426e+00
18.9          	bodyWall	8.575022e-02	4.068018e+00	1.314875e+00
18.9          	actuatorSlot_top	1.281594e+00	1.421378e+00	1.377250e+00
18.9          	actuatorSlot_bottom	1.281507e+00	1.421326e+00	1.377184e+00
19.2          	bodyWall	9.221612e-02	4.060388e+00	1.318151e+00
19.2          	actuatorSlot_top	1.269653e+00	1.417083e+00	1.369474e+00
19.2          	actuatorSlot_bottom	1.269611e+00	1.417041e+00	1.369430e+00
19.5          	bodyWall	9.075004e-02	4.050223e+00	1.320286e+00
19.5          	actuatorSlot_top	1.251116e+00	1.408237e+00	1.355944e+00
19.5          	actuatorSlot_bottom	1.251122e+00	1.408216e+00	1.355934e+00
19.8          	bodyWall	7.379463e-02	4.042596e+00	1.319566e+00
19.8          	actuatorSlot_top	1.237066e+00	1.398858e+00	1.344265e+00
19.8          	actuatorSlot_bottom	1.237099e+00	1.398863e+00	1.344283e+00
20.1          	bodyWall	1.035942e-01	4.040765e+00	1.317399e+00
20.1          	actuatorSlot_top	1.235597e+00	1.394110e+00	1.341091e+00
20.1          	actuatorSlot_bottom	1.235625e+00	1.394132e+00	1.341116e+00
20.4          	bodyWall	2.003687e-02	4.044136e+00	1.311490e+00
20.4          	actuatorSlot_top	1.246433e+00	1.395748e+00	1.347114e+00
20.4          	actuatorSlot_bottom	1.246428e+00	1.395766e+00	1.347123e+00
20.7          	bodyWall	1.479826e-01	4.047646e+00	1.313602e+00
20.7          	actuatorSlot_top	1.258908e+00	1.400635e+00	1.355528e+00
20.7          	actuatorSlot_bottom	1.258870e+00	1.400635e+00	1.355509e+00
21            	bodyWall	3.396691e-02	4.045974e+00	1.315631e+00
21            	actuatorSlot_top	1.260615e+00	1.403063e+00	1.357532e+00
21            	actuatorSlot_bottom	1.260560e+00	1.403034e+00	1.357490e+00
21.3          	bodyWall	1.645298e-01	4.037970e+00	1.319907e+00
21.3          	actuatorSlot_top	1.248055e+00	1.399047e+00	1.349373e+00
21.3          	actuatorSlot_bottom	1.248013e+00	1.399004e+00	1.349328e+00
21.6          	bodyWall	1.178762e-01	4.026227e+00	1.318367e+00
21.6          	actuatorSlot_top	1.227310e+00	1.389254e+00	1.334151e+00
21.6          	actuatorSlot_bottom	1.227301e+00	1.389216e+00	1.334125e+00
21.9          	bodyWall	1.021963e-01	4.015022e+00	1.318339e+00
21.9          	actuatorSlot_top	1.207524e+00	1.377319e+00	1.318184e+00
21.9          	actuatorSlot_bottom	1.207562e+00	1.377307e+00	1.318195e+00
22.2          	bodyWall	1.492305e-01	4.007142e+00	1.320955e+00
22.2          	actuatorSlot_top	1.195714e+00	1.368044e+00	1.307499e+00
22.2          	actuatorSlot_bottom	1.195797e+00	1.368069e+00	1.307552e+00
22.5          	bodyWall	1.578200e-01	4.001960e+00	1.322968e+00
22.5          	actuatorSlot_top	1.191232e+00	1.363041e+00	1.302606e+00
22.5          	actuatorSlot_bottom	1.191335e+00	1.363080e+00	1.302678e+00
22.8          	bodyWall	1.821556e-01	3.996426e+00	1.324076e+00
22.8          	actuatorSlot_top	1.187312e+00	1.359495e+00	1.298673e+00
22.8          	actuatorSlot_bottom	1.187423e+00	1.359549e+00	1.298755e+00
23.1          	bodyWall	5.157161e-02	3.988681e+00	1.321100e+00
23.1          	actuatorSlot_top	1.177800e+00	1.353768e+00	1.290596e+00
23.1          	actuatorSlot_bottom	1.177900e+00	1.353812e+00	1.290673e+00
23.4          	bodyWall	1.317248e-01	3.979887e+00	1.316948e+00
23.4          	actuatorSlot_top	1.164904e+00	1.345931e+00	1.279383e+00
23.4          	actuatorSlot_bottom	1.164989e+00	1.345975e+00	1.279451e+00
23.7          	bodyWall	5.950296e-02	3.973228e+00	1.317645e+00
23.7          	actuatorSlot_top	1.154637e+00	1.337987e+00	1.269804e+00
23.7          	actuatorSlot_bottom	1.154697e+00	1.338027e+00	1.269856e+00
24            	bodyWall	1.255715e-01	3.971453e+00	1.313182e+00
24            	actuatorSlot_top	1.153160e+00	1.333734e+00	1.267253e+00
24            	actuatorSlot_bottom	1.153187e+00	1.333765e+00	1.267283e+00
24.3          	bodyWall	5.850596e-02	3.974219e+00	1.303715e+00
24.3          	actuatorSlot_top	1.162864e+00	1.335504e+00	1.273883e+00
24.3          	actuatorSlot_bottom	1.162860e+00	1.335525e+00	1.273891e+00
24.6          	bodyWall	5.398002e-02	3.976303e+00	1.297498e+00
24.6          	actuatorSlot_top	1.172667e+00	1.340351e+00	1.281211e+00
24.6          	actuatorSlot_bottom	1.172634e+00	1.340345e+00	1.281191e+00
24.9          	bodyWall	8.604546e-02	3.972914e+00	1.290535e+00
24.9          	actuatorSlot_top	1.171372e+00	1.341116e+00	1.280735e+00
24.9          	actuatorSlot_bottom	1.171317e+00	1.341078e+00	1.280686e+00
25.2          	bodyWall	1.736045e-01	3.963788e+00	1.290553e+00
25.2          	actuatorSlot_top	1.156090e+00	1.334955e+00	1.268753e+00
25.2          	actuatorSlot_bottom	1.156018e+00	1.334894e+00	1.268678e+00
25.5          	bodyWall	1.066811e-01	3.953149e+00	1.287955e+00
25.5          	actuatorSlot_top	1.134943e+00	1.322516e+00	1.250464e+00
25.5          	actuatorSlot_bottom	1.134854e+00	1.322431e+00	1.250368e+00
25.8          	bodyWall	1.449442e-01	3.947265e+00	1.287180e+00
25.8          	actuatorSlot_top	1.122258e+00	1.312331e+00	1.238566e+00
25.8          	actuatorSlot_bottom	1.122158e+00	1.312240e+00	1.238463e+00
26.1          	bodyWall	1.037428e-01	3.948559e+00	1.282244e+00
26.1          	actuatorSlot_top	1.126151e+00	1.311204e+00	1.240796e+00
26.1          	actuatorSlot_bottom	1.126030e+00	1.311108e+00	1.240680e+00
26.4          	bodyWall	3.216864e-02	3.953467e+00	1.277227e+00
26.4          	actuatorSlot_top	1.140226e+00	1.317320e+00	1.251970e+00
26.4          	actuatorSlot_bottom	1.140073e+00	1.317203e+00	1.251826e+00
26.7          	bodyWall	9.206541e-02	3.956130e+00	1.274919e+00
26.7          	actuatorSlot_top	1.149797e+00	1.323051e+00	1.260020e+00
26.7          	actuatorSlot_bottom	1.149620e+00	1.322910e+00	1.259849e+00
27            	bodyWall	9.965833e-02	3.953236e+00	1.275890e+00
27            	actuatorSlot_top	1.147429e+00	1.323616e+00	1.258530e+00
27            	actuatorSlot_bottom	1.147234e+00	1.323428e+00	1.258326e+00
27.3          	bodyWall	1.026405e-01	3.945030e+00	1.275654e+00
27.3          	actuatorSlot_top	1.133484e+00	1.316825e+00	1.246820e+00
27.3          	actuatorSlot_bottom	1.133311e+00	1.316620e+00	1.246620e+00
27.6          	bodyWall	9.888502e-02	3.934368e+00	1.275153e+00
27.6          	actuatorSlot_top	1.115000e+00	1.305263e+00	1.230145e+00
27.6          	actuatorSlot_bottom	1.114876e+00	1.305067e+00	1.229978e+00
27.9          	bodyWall	5.424287e-02	3.924358e+00	1.276826e+00
27.9          	actuatorSlot_top	1.099769e+00	1.293796e+00	1.215314e+00
27.9          	actuatorSlot_bottom	1.099693e+00	1.293631e+00	1.215194e+00
28.2          	bodyWall	5.833358e-02	3.915787e+00	1.278072e+00
28.2          	actuatorSlot_top	1.089858e+00	1.284691e+00	1.204680e+00
28.2          	actuatorSlot_bottom	1.089838e+00	1.284562e+00	1.204610e+00
28.5          	bodyWall	4.383113e-02	3.907108e+00	1.276935e+00
28.5          	actuatorSlot_top	1.081573e+00	1.276427e+00	1.195186e+00
28.5          	actuatorSlot_bottom	1.081581e+00	1.276323e+00	1.195147e+00
28.8          	bodyWall	1.573506e-01	3.897244e+00	1.272467e+00
28.8          	actuatorSlot_top	1.071496e+00	1.266415e+00	1.183505e+00
28.8          	actuatorSlot_bottom	1.071522e+00	1.266329e+00	1.183489e+00
29.1          	bodyWall	1.424320e-01	3.887118e+00	1.269636e+00
29.1          	actuatorSlot_top	1.060323e+00	1.254810e+00	1.170337e+00
29.1          	actuatorSlot_bottom	1.060367e+00	1.254747e+00	1.170347e+00
29.4          	bodyWall	9.618018e-02	3.879196e+00	1.272027e+00
29.4          	actuatorSlot_top	1.051098e+00	1.244476e+00	1.159429e+00
29.4          	actuatorSlot_bottom	1.051159e+00	1.244442e+00	1.159468e+00
29.7          	bodyWall	9.664259e-02	3.875641e+00	1.272484e+00
29.7          	actuatorSlot_top	1.047520e+00	1.239525e+00	1.155395e+00
29.7          	actuatorSlot_bottom	1.047598e+00	1.239513e+00	1.155457e+00
30            	bodyWall	1.237322e-01	3.876554e+00	1.270762e+00
30            	actuatorSlot_top	1.051002e+00	1.241152e+00	1.159345e+00
30            	actuatorSlot_bottom	1.051087e+00	1.241148e+00	1.159410e+00
30.3          	bodyWall	9.234043e-02	3.879039e+00	1.264408e+00
30.3          	actuatorSlot_top	1.058995e+00	1.246632e+00	1.167425e+00
30.3          	actuatorSlot_bottom	1.059062e+00	1.246609e+00	1.167467e+00
30.6          	bodyWall	1.472003e-01	3.879531e+00	1.263727e+00
30.6          	actuatorSlot_top	1.064370e+00	1.250357e+00	1.172372e+00
30.6          	actuatorSlot_bottom	1.064423e+00	1.250316e+00	1.172396e+00
30.9          	bodyWall	1.344538e-01	3.876357e+00	1.264080e+00
30.9          	actuatorSlot_top	1.062756e+00	1.248849e+00	1.170053e+00
30.9          	actuatorSlot_bottom	1.062808e+00	1.248803e+00	1.170074e+00
31.2          	bodyWall	1.226817e-01	3.871121e+00	1.260422e+00
31.2          	actuatorSlot_top	1.055510e+00	1.242345e+00	1.161913e+00
31.2          	actuatorSlot_bottom	1.055568e+00	1.242308e+00	1.161942e+00
31.5          	bodyWall	5.200182e-02	3.867937e+00	1.255359e+00
31.5          	actuatorSlot_top	1.048897e+00	1.236098e+00	1.155070e+00
31.5          	actuatorSlot_bottom	1.048945e+00	1.236059e+00	1.155095e+00
31.8          	bodyWall	5.193861e-02	3.870489e+00	1.246939e+00
31.8          	actuatorSlot_top	1.050423e+00	1.236863e+00	1.157612e+00
31.8          	actuatorSlot_bottom	1.050455e+00	1.236813e+00	1.157617e+00
32.1          	bodyWall	1.189265e-01	3.878715e+00	1.235262e+00
32.1          	actuatorSlot_top	1.062641e+00	1.245480e+00	1.170642e+00
32.1          	actuatorSlot_bottom	1.062628e+00	1.245389e+00	1.170595e+00
32.4          	bodyWall	4.526258e-02	3.888257e+00	1.229865e+00
32.4          	actuatorSlot_top	1.080698e+00	1.257806e+00	1.188044e+00
32.4          	actuatorSlot_bottom	1.080612e+00	1.257659e+00	1.187922e+00
32.7          	bodyWall	9.481196e-02	3.893300e+00	1.234576e+00
32.7          	actuatorSlot_top	1.092494e+00	1.267124e+00	1.199191e+00
32.7          	actuatorSlot_bottom	1.092317e+00	1.266895e+00	1.198973e+00
33            	bodyWall	6.170858e-02	3.891143e+00	1.236762e+00
33            	actuatorSlot_top	1.090305e+00	1.268305e+00	1.197728e+00
33            	actuatorSlot_bottom	1.090080e+00	1.268007e+00	1.197447e+00
33.3          	bodyWall	2.658270e-02	3.882844e+00	1.242594e+00
33.3          	actuatorSlot_top	1.077833e+00	1.260883e+00	1.185468e+00
33.3          	actuatorSlot_bottom	1.077606e+00	1.260537e+00	1.185161e+00
33.6          	bodyWall	7.913181e-02	3.872012e+00	1.248954e+00
33.6          	actuatorSlot_top	1.061451e+00	1.247357e+00	1.167887e+00
33.6          	actuatorSlot_bottom	1.061277e+00	1.247025e+00	1.167623e+00
33.9          	bodyWall	5.935711e-02	3.862831e+00	1.251992e+00
33.9          	actuatorSlot_top	1.048250e+00	1.234220e+00	1.152833e+00
33.9          	actuatorSlot_bottom	1.048127e+00	1.233929e+00	1.152628e+00
34.2          	bodyWall	1.366415e-01	3.856937e+00	1.257415e+00
34.2          	actuatorSlot_top	1.042095e+00	1.226654e+00	1.145259e+00
34.2          	actuatorSlot_bottom	1.042023e+00	1.226413e+00	1.145116e+00
34.5          	bodyWall	6.298467e-02	3.852027e+00	1.261221e+00
34.5          	actuatorSlot_top	1.040550e+00	1.222944e+00	1.142114e+00
34.5          	actuatorSlot_bottom	1.040512e+00	1.222740e+00	1.142015e+00
34.8          	bodyWall	1.021868e-01	3.844256e+00	1.266585e+00
34.8          	actuatorSlot_top	1.037361e+00	1.216802e+00	1.135663e+00
34.8          	actuatorSlot_bottom	1.037340e+00	1.216619e+00	1.135588e+00
35.1          	bodyWall	1.024357e-01	3.832742e+00	1.267947e+00
35.1          	actuatorSlot_top	1.029303e+00	1.204555e+00	1.122267e+00
35.1          	actuatorSlot_bottom	1.029268e+00	1.204375e+00	1.122195e+00
35.4          	bodyWall	5.946738e-02	3.820620e+00	1.263153e+00
35.4          	actuatorSlot_top	1.020072e+00	1.189450e+00	1.106832e+00
35.4          	actuatorSlot_bottom	1.020036e+00	1.189308e+00	1.106788e+00
35.7          	bodyWall	2.528613e-02	3.811943e+00	1.263131e+00
35.7          	actuatorSlot_top	1.011840e+00	1.177006e+00	1.094836e+00
35.7          	actuatorSlot_bottom	1.011820e+00	1.176898e+00	1.094823e+00
36            	bodyWall	9.322070e-02	3.809285e+00	1.263434e+00
36            	actuatorSlot_top	1.007928e+00	1.173029e+00	1.091796e+00
36            	actuatorSlot_bottom	1.007913e+00	1.172960e+00	1.091815e+00
36.3          	bodyWall	1.312072e-01	3.811420e+00	1.262923e+00
36.3          	actuatorSlot_top	1.009686e+00	1.176974e+00	1.097075e+00
36.3          	actuatorSlot_bottom	1.009698e+00	1.176926e+00	1.097120e+00
36.6          	bodyWall	4.772244e-02	3.814348e+00	1.255724e+00
36.6          	actuatorSlot_top	1.015504e+00	1.183728e+00	1.105322e+00
36.6          	actuatorSlot_bottom	1.015548e+00	1.183706e+00	1.105397e+00
36.9          	bodyWall	1.578452e-01	3.814491e+00	1.255560e+00
36.9          	actuatorSlot_top	1.019554e+00	1.187107e+00	1.109256e+00
36.9          	actuatorSlot_bottom	1.019619e+00	1.187107e+00	1.109355e+00
37.2          	bodyWall	1.093889e-01	3.811081e+00	1.249700e+00
37.2          	actuatorSlot_top	1.019001e+00	1.184669e+00	1.106440e+00
37.2          	actuatorSlot_bottom	1.019050e+00	1.184685e+00	1.106544e+00
37.5          	bodyWall	1.850624e-01	3.806099e+00	1.248038e+00
37.5          	actuatorSlot_top	1.014694e+00	1.177861e+00	1.098998e+00
37.5          	actuatorSlot_bottom	1.014760e+00	1.177901e+00	1.099125e+00
37.8          	bodyWall	8.182614e-02	3.804117e+00	1.243182e+00
37.8          	actuatorSlot_top	1.008719e+00	1.171868e+00	1.092644e+00
37.8          	actuatorSlot_bottom	1.008757e+00	1.171910e+00	1.092754e+00
38.1          	bodyWall	7.811990e-02	3.808522e+00	1.234972e+00
38.1          	actuatorSlot_top	1.008002e+00	1.174655e+00	1.096066e+00
38.1          	actuatorSlot_bottom	1.008063e+00	1.174690e+00	1.096174e+00
38.4          	bodyWall	1.310926e-01	3.818405e+00	1.223676e+00
38.4          	actuatorSlot_top	1.015676e+00	1.185890e+00	1.109383e+00
38.4          	actuatorSlot_bottom	1.015743e+00	1.185914e+00	1.109477e+00
38.7          	bodyWall	1.179209e-01	3.829593e+00	1.216252e+00
38.7          	actuatorSlot_top	1.030565e+00	1.201912e+00	1.128276e+00
38.7          	actuatorSlot_bottom	1.030677e+00	1.201926e+00	1.128382e+00
39            	bodyWall	1.330829e-01	3.836914e+00	1.213624e+00
39            	actuatorSlot_top	1.043200e+00	1.213924e+00	1.142003e+00
39            	actuatorSlot_bottom	1.043312e+00	1.213919e+00	1.142092e+00
39.3          	bodyWall	7.432463e-02	3.837749e+00	1.212123e+00
39.3          	actuatorSlot_top	1.046194e+00	1.217814e+00	1.144839e+00
39.3          	actuatorSlot_bottom	1.046282e+00	1.217787e+00	1.144900e+00
39.6          	bodyWall	1.347149e-01	3.832521e+00	1.218921e+00
39.6          	actuatorSlot_top	1.040063e+00	1.212621e+00	1.136978e+00
39.6          	actuatorSlot_bottom	1.040116e+00	1.212571e+00	1.137004e+00
39.9          	bodyWall	1.305649e-01	3.824077e+00	1.226381e+00
39.9          	actuatorSlot_top	1.030159e+00	1.201243e+00	1.123393e+00
39.9          	actuatorSlot_bottom	1.030173e+00	1.201162e+00	1.123383e+00
40.2          	bodyWall	1.501701e-01	3.815536e+00	1.233571e+00
40.2          	actuatorSlot_top	1.021421e+00	1.189834e+00	1.110835e+00
40.2          	actuatorSlot_bottom	1.021407e+00	1.189744e+00	1.110810e+00
40.5          	bodyWall	1.503112e-01	3.808330e+00	1.237455e+00
40.5          	actuatorSlot_top	1.016114e+00	1.181079e+00	1.102116e+00
40.5          	actuatorSlot_bottom	1.016105e+00	1.181011e+00	1.102113e+00
40.8          	bodyWall	1.004330e-01	3.801390e+00	1.240858e+00
40.8          	actuatorSlot_top	1.013410e+00	1.174294e+00	1.095863e+00
40.8          	actuatorSlot_bottom	1.013408e+00	1.174264e+00	1.095890e+00
41.1          	bodyWall	1.672930e-01	3.792246e+00	1.247937e+00
41.1          	actuatorSlot_top	1.011552e+00	1.165904e+00	1.088286e+00
41.1          	actuatorSlot_bottom	1.011560e+00	1.165910e+00	1.088344e+00
41.4          	bodyWall	1.938195e-01	3.779838e+00	1.249313e+00
41.4          	actuatorSlot_top	1.009548e+00	1.152374e+00	1.076483e+00
41.4          	actuatorSlot_bottom	1.009519e+00	1.152404e+00	1.076541e+00
41.7          	bodyWall	1.904600e-01	3.766207e+00	1.243881e+00
41.7          	actuatorSlot_top	1.006889e+00	1.134586e+00	1.061825e+00
41.7          	actuatorSlot_bottom	1.006834e+00	1.134641e+00	1.061884e+00
42            	bodyWall	1.799199e-01	3.755111e+00	1.248952e+00
42            	actuatorSlot_top	1.000285e+00	1.118361e+00	1.048765e+00
42            	actuatorSlot_bottom	1.000272e+00	1.118453e+00	1.048838e+00
42.3          	bodyWall	4.351511e-02	3.749622e+00	1.249037e+00
42.3          	actuatorSlot_top	9.939844e-01	1.110228e+00	1.041547e+00
42.3          	actuatorSlot_bottom	9.939799e-01	1.110366e+00	1.041648e+00
42.6          	bodyWall	1.164756e-01	3.749646e+00	1.243839e+00
42.6          	actuatorSlot_top	9.917858e-01	1.112225e+00	1.042667e+00
42.6          	actuatorSlot_bottom	9.918051e-01	1.112403e+00	1.042805e+00
42.9          	bodyWall	1.659168e-01	3.751651e+00	1.245903e+00
42.9          	actuatorSlot_top	9.925302e-01	1.118741e+00	1.048507e+00