# y+ ()       
# Time        	patch         	min           	max           	average       
0             	bodyWall	0.000000e+00	0.000000e+00	0.000000e+00
0.3           	bodyWall	1.888724e-01	6.148088e+00	2.816618e+00
0.6           	bodyWall	2.001263e-01	5.732629e+00	2.336489e+00
0.9           	bodyWall	2.396148e-01	5.431273e+00	2.054679e+00
1.2           	bodyWall	2.344816e-01	5.234076e+00	1.893621e+00
1.5           	bodyWall	2.247236e-01	5.082903e+00	1.775772e+00
1.8           	bodyWall	2.055650e-01	4.986666e+00	1.698712e+00
2.1           	bodyWall	1.507354e-01	4.935384e+00	1.619706e+00
2.4           	bodyWall	1.786615e-01	4.898910e+00	1.579416e+00
2.7           	bodyWall	2.248801e-01	4.891179e+00	1.566371e+00
3             	bodyWall	1.463579e-01	4.913902e+00	1.656449e+00
3.3           	bodyWall	1.640764e-01	4.965276e+00	1.730405e+00
3.6           	bodyWall	2.233275e-01	5.050881e+00	1.905774e+00
3.9           	bodyWall	2.233867e-01	5.866723e+00	2.202814e+00
4.2           	bodyWall	1.275622e-01	6.352398e+00	2.315775e+00
4.5           	bodyWall	6.264979e-02	6.494279e+00	2.346622e+00
4.8           	bodyWall	2.121611e-01	6.402590e+00	2.334085e+00
5.1           	bodyWall	1.014509e-01	6.055474e+00	2.258971e+00
5.4           	bodyWall	1.351749e-01	5.319484e+00	2.105367e+00
5.7           	bodyWall	5.790767e-02	5.119702e+00	1.825447e+00
6             	bodyWall	1.527520e-01	4.904821e+00	1.670431e+00
6.3           	bodyWall	2.183691e-01	4.733755e+00	1.532071e+00
6.6           	bodyWall	1.555695e-01	4.635440e+00	1.572730e+00
6.9           	bodyWall	1.248447e-01	4.587930e+00	1.511799e+00
7.2           	bodyWall	1.138563e-01	4.568744e+00	1.453170e+00
7.5           	bodyWall	1.348370e-01	4.511200e+00	1.435259e+00
7.8           	bodyWall	1.923107e-01	4.452647e+00	1.409225e+00
8.1           	bodyWall	1.561997e-01	4.405858e+00	1.391049e+00
8.4           	bodyWall	1.494744e-01	4.388175e+00	1.416925e+00
8.7           	bodyWall	2.060932e-01	4.430694e+00	1.437768e+00
9             	bodyWall	1.037642e-01	4.538485e+00	1.462236e+00
9.3           	bodyWall	1.368916e-01	4.674493e+00	1.596252e+00
9.6           	bodyWall	1.591950e-01	4.822481e+00	1.671338e+00
9.9           	bodyWall	1.230015e-01	5.546237e+00	2.107351e+00
10.2          	bodyWall	1.690044e-01	6.310885e+00	2.336333e+00
10.5          	bodyWall	1.430703e-01	6.581571e+00	2.440344e+00
10.8          	bodyWall	2.203491e-01	6.526910e+00	2.447503e+00
11.1          	bodyWall	2.197416e-01	6.141778e+00	2.305279e+00
11.4          	bodyWall	1.344503e-01	5.228281e+00	2.156930e+00
11.7          	bodyWall	1.305082e-01	4.847450e+00	1.810399e+00
12            	bodyWall	2.132731e-01	4.538426e+00	1.519658e+00
12.3          	bodyWall	2.111157e-01	4.351296e+00	1.387545e+00
12.6          	bodyWall	2.102711e-01	4.283211e+00	1.401119e+00
12.9          	bodyWall	1.708151e-01	4.247712e+00	1.409056e+00
13.2          	bodyWall	1.280835e-01	4.229016e+00	1.383829e+00
13.5          	bodyWall	2.108334e-01	4.220252e+00	1.355549e+00
13.8          	bodyWall	1.313918e-01	4.250961e+00	1.336235e+00
14.1          	bodyWall	1.308988e-01	4.296599e+00	1.358257e+00
14.4          	bodyWall	1.796240e-01	4.332567e+00	1.395683e+00
14.7          	bodyWall	8.430594e-02	4.370984e+00	1.451680e+00
15            	bodyWall	1.040722e-01	4.405487e+00	1.563129e+00
15.3          	bodyWall	1.176126e-01	4.442929e+00	1.636214e+00
15.6          	bodyWall	1.002069e-01	4.513019e+00	1.647811e+00
15.9          	bodyWall	2.109100e-01	4.939791e+00	1.990343e+00
16.2          	bodyWall	2.120082e-01	5.678758e+00	2.280989e+00
16.5          	bodyWall	2.114822e-01	5.811523e+00	2.380386e+00
16.8          	bodyWall	2.110380e-01	5.622438e+00	2.322425e+00
17.1          	bodyWall	1.838400e-01	5.090419e+00	2.196390e+00
17.4          	bodyWall	2.111679e-01	4.755280e+00	1.992612e+00
17.7          	bodyWall	1.247404e-01	4.615086e+00	1.741644e+00
18            	bodyWall	2.097216e-01	4.431905e+00	1.530463e+00
18.3          	bodyWall	2.087397e-01	4.315795e+00	1.515361e+00
18.6          	bodyWall	9.885591e-02	4.261788e+00	1.507563e+00
18.9          	bodyWall	2.000539e-01	4.228224e+00	1.475751e+00
19.2          	bodyWall	1.955329e-01	4.209729e+00	1.406120e+00
19.5          	bodyWall	1.934982e-01	4.206207e+00	1.357749e+00
19.8          	bodyWall	1.087871e-01	4.206083e+00	1.320162e+00
20.1          	bodyWall	1.383034e-01	4.220596e+00	1.296082e+00
20.4          	bodyWall	9.471715e-02	4.246424e+00	1.278287e+00
20.7          	bodyWall	1.723572e-01	4.286465e+00	1.278681e+00
21            	bodyWall	1.103829e-01	4.353017e+00	1.337296e+00
21.3          	bodyWall	9.699369e-02	4.439205e+00	1.424318e+00
21.6          	bodyWall	1.142828e-01	4.566927e+00	1.510427e+00
21.9          	bodyWall	1.128806e-01	5.318295e+00	1.949358e+00
22.2          	bodyWall	5.154013e-02	6.117300e+00	2.172348e+00
22.5          	bodyWall	7.476307e-02	6.328919e+00	2.278961e+00
22.8          	bodyWall	6.952455e-02	6.203481e+00	2.262461e+00
23.1          	bodyWall	6.902399e-02	5.701630e+00	2.168474e+00
23.4          	bodyWall	1.966253e-01	4.836512e+00	2.004220e+00
23.7          	bodyWall	2.036547e-01	4.635906e+00	1.712100e+00
24            	bodyWall	2.050223e-01	4.647778e+00	1.495561e+00
24.3          	bodyWall	2.061822e-01	5.008797e+00	1.605571e+00
24.6          	bodyWall	2.076084e-01	4.401937e+00	1.631983e+00
24.9          	bodyWall	2.041635e-01	4.165690e+00	1.550274e+00
25.2          	bodyWall	1.125388e-01	4.129223e+00	1.430153e+00
25.5          	bodyWall	7.544433e-02	4.127089e+00	1.379994e+00
25.8          	bodyWall	1.368618e-01	4.158282e+00	1.356215e+00
26.1          	bodyWall	1.223615e-01	4.209494e+00	1.279105e+00
26.4          	bodyWall	1.108552e-01	4.266044e+00	1.256492e+00
26.7          	bodyWall	1.068286e-01	4.334658e+00	1.280112e+00
27            	bodyWall	9.488913e-02	4.395811e+00	1.361841e+00
27.3          	bodyWall	1.129515e-01	4.464697e+00	1.446284e+00
27.6          	bodyWall	1.193241e-01	4.584679e+00	1.608500e+00
27.9          	bodyWall	1.247025e-01	5.450604e+00	1.989582e+00
28.2          	bodyWall	7.141594e-02	5.847364e+00	2.122531e+00
28.5          	bodyWall	9.731694e-02	5.865183e+00	2.156557e+00
28.8          	bodyWall	7.502515e-02	5.595525e+00	2.121319e+00
29.1          	bodyWall	9.280200e-02	5.010729e+00	2.022359e+00
29.4          	bodyWall	6.181813e-02	4.835356e+00	1.830518e+00
29.7          	bodyWall	1.442512e-01	4.707809e+00	1.631101e+00
30            	bodyWall	1.177701e-01	4.555644e+00	1.440946e+00
30.3          	bodyWall	1.004493e-01	4.447821e+00	1.526991e+00
30.6          	bodyWall	1.543407e-01	4.366448e+00	1.480296e+00
30.9          	bodyWall	1.019883e-01	4.314725e+00	1.363409e+00
31.2          	bodyWall	1.249147e-01	4.290356e+00	1.314618e+00
31.5          	bodyWall	3.524057e-02	4.296789e+00	1.266809e+00
31.8          	bodyWall	9.314791e-02	4.303687e+00	1.224041e+00
32.1          	bodyWall	9.054727e-02	4.308329e+00	1.204711e+00
32.4          	bodyWall	5.269103e-02	4.316601e+00	1.200472e+00
32.7          	bodyWall	9.060504e-02	4.329013e+00	1.218631e+00
33            	bodyWall	6.032276e-02	4.368625e+00	1.322724e+00
33.3          	bodyWall	1.140090e-01	4.442366e+00	1.417590e+00
33.6          	bodyWall	8.646587e-02	4.593429e+00	1.481768e+00
33.9          	bodyWall	7.860774e-02	5.677223e+00	1.980519e+00
34.2          	bodyWall	7.194249e-02	6.323669e+00	2.156215e+00
34.5          	bodyWall	5.621143e-02	6.461590e+00	2.227166e+00
34.8          	bodyWall	3.983839e-02	6.236732e+00	2.220960e+00
35.1          	bodyWall	1.177808e-01	5.571034e+00	2.119500e+00
35.4          	bodyWall	2.102845e-01	4.864494e+00	1.891947e+00
35.7          	bodyWall	8.285619e-02	4.763447e+00	1.619784e+00
36            	bodyWall	1.332083e-01	4.830823e+00	1.482763e+00
36.3          	bodyWall	8.439502e-02	4.669605e+00	1.550313e+00
36.6          	bodyWall	4.182678e-02	4.280230e+00	1.498559e+00
36.9          	bodyWall	8.430696e-02	4.238124e+00	1.398149e+00
37.2          	bodyWall	9.052179e-02	4.205164e+00	1.317075e+00
37.5          	bodyWall	7.980439e-02	4.203004e+00	1.272456e+00
37.8          	bodyWall	6.144827e-02	4.230721e+00	1.246892e+00
38.1          	bodyWall	1.021560e-01	4.278791e+00	1.230150e+00
38.4          	bodyWall	1.333637e-01	4.336711e+00	1.220268e+00
38.7          	bodyWall	1.089981e-01	4.422063e+00	1.286522e+00
39            	bodyWall	8.260703e-02	4.500907e+00	1.385036e+00
39.3          	bodyWall	7.581813e-02	4.599578e+00	1.472592e+00
39.6          	bodyWall	1.291835e-01	4.879614e+00	1.657615e+00
39.9          	bodyWall	4.944181e-02	5.767496e+00	2.017830e+00
40.2          	bodyWall	5.589089e-02	6.000804e+00	2.138777e+00
40.5          	bodyWall	5.696596e-02	5.902273e+00	2.150327e+00
40.8          	bodyWall	2.763282e-02	5.476648e+00	2.100152e+00
41.1          	bodyWall	9.148431e-02	4.957400e+00	1.977268e+00
41.4          	bodyWall	6.896075e-02	4.847818e+00	1.712576e+00
41.7          	bodyWall	2.818269e-02	4.736857e+00	1.587924e+00
42            	bodyWall	7.378839e-02	4.615077e+00	1.523077e+00
42.3          	bodyWall	7.733220e-02	4.536271e+00	1.532109e+00
42.6          	bodyWall	7.263350e-02	4.483584e+00	1.421774e+00
42.9          	bodyWall	5.950255e-02	4.437439e+00	1.318162e+00
43.2          	bodyWall	4.199867e-02	4.404818e+00	1.302943e+00
43.5          	bodyWall	4.479973e-02	4.392194e+00	1.285155e+00
43.8          	bodyWall	5.878054e-02	4.391075e+00	1.263027e+00
44.1          	bodyWall	9.456635e-02	4.405099e+00	1.248902e+00
44.4          	bodyWall	8.622129e-02	4.433415e+00	1.229055e+00
44.7          	bodyWall	1.009786e-01	4.468383e+00	1.258408e+00
45            	bodyWall	1.145258e-01	4.504373e+00	1.366730e+00
45.3          	bodyWall	5.960221e-02	4.547634e+00	1.457111e+00
45.6          	bodyWall	1.458035e-01	4.923332e+00	1.668172e+00
45.9          	bodyWall	3.519770e-02	5.908432e+00	2.038636e+00
46.2          	bodyWall	6.366240e-02	6.279641e+00	2.183041e+00
46.5          	bodyWall	6.071918e-02	6.324903e+00	2.211221e+00
46.8          	bodyWall	1.318341e-01	6.053999e+00	2.181801e+00
47.1          	bodyWall	1.164534e-01	5.313036e+00	2.080761e+00
47.4          	bodyWall	8.164088e-02	4.953418e+00	1.817762e+00
47.7          	bodyWall	1.826642e-01	4.726802e+00	1.550200e+00
48            	bodyWall	1.415150e-01	4.538020e+00	1.451399e+00
48.3          	bodyWall	9.884440e-02	4.449145e+00	1.544830e+00
48.6          	bodyWall	4.025283e-02	4.417875e+00	1.484684e+00
48.9          	bodyWall	9.423070e-02	4.366763e+00	1.352850e+00
49.2          	bodyWall	6.505790e-02	4.287006e+00	1.308684e+00
49.5          	bodyWall	3.117506e-02	4.256447e+00	1.256915e+00
49.8          	bodyWall	5.345594e-02	4.306221e+00	1.247582e+00
50.1          	bodyWall	7.902991e-02	4.364749e+00	1.258196e+00
50.4          	bodyWall	6.950638e-02	4.431103e+00	1.276582e+00
50.7          	bodyWall	1.315532e-01	4.494812e+00	1.386154e+00
51            	bodyWall	8.365323e-02	4.611491e+00	1.498874e+00
51.3          	bodyWall	1.209511e-01	4.726939e+00	1.684048e+00
51.6          	bodyWall	1.215498e-01	5.554466e+00	2.038064e+00
51.9          	bodyWall	4.793222e-02	6.003353e+00	2.182648e+00
52.2          	bodyWall	1.055817e-01	6.141833e+00	2.237753e+00
52.5          	bodyWall	1.062296e-01	6.007236e+00	2.218326e+00
52.8          	bodyWall	1.623582e-01	5.561227e+00	2.119956e+00
53.1          	bodyWall	8.590466e-02	5.115221e+00	1.947167e+00
53.4          	bodyWall	3.532964e-02	4.979144e+00	1.677540e+00
53.7          	bodyWall	1.058416e-01	4.792774e+00	1.452587e+00
54            	bodyWall	1.136615e-01	4.654585e+00	1.419170e+00
54.3          	bodyWall	1.160657e-01	4.563803e+00	1.344777e+00
54.6          	bodyWall	5.421136e-02	4.506947e+00	1.279656e+00
54.9          	bodyWall	3.599530e-02	4.481508e+00	1.286567e+00
55.2          	bodyWall	1.114951e-01	4.471936e+00	1.296346e+00
55.5          	bodyWall	1.672972e-01	4.460024e+00	1.292801e+00
55.8          	bodyWall	7.324861e-02	4.438906e+00	1.284561e+00
56.1          	bodyWall	1.289086e-01	4.425675e+00	1.284067e+00
56.4          	bodyWall	8.968128e-02	4.427348e+00	1.300333e+00
56.7          	bodyWall	6.641794e-02	4.461476e+00	1.369094e+00
57            	bodyWall	8.289865e-02	4.546004e+00	1.453279e+00
57.3          	bodyWall	4.643588e-02	4.687015e+00	1.519842e+00
57.6          	bodyWall	9.289705e-02	5.297572e+00	1.925834e+00
57.9          	bodyWall	2.531680e-02	6.292104e+00	2.183040e+00
58.2          	bodyWall	6.390778e-02	6.523784e+00	2.283135e+00
58.5          	bodyWall	6.819408e-02	6.377708e+00	2.264074e+00
58.8          	bodyWall	1.271440e-01	5.814601e+00	2.162362e+00
59.1          	bodyWall	8.479079e-02	4.952876e+00	1.973052e+00
59.4          	bodyWall	8.528336e-02	4.804043e+00	1.751821e+00
59.7          	bodyWall	1.894610e-01	4.486425e+00	1.523277e+00
60            	bodyWall	1.621880e-01	4.358780e+00	1.472701e+00
60.3          	bodyWall	9.556988e-02	4.330303e+00	1.396264e+00
60.6          	bodyWall	6.101057e-02	4.336860e+00	1.364546e+00
60.9          	bodyWall	7.149194e-02	4.334973e+00	1.329972e+00
61.2          	bodyWall	4.946615e-02	4.316183e+00	1.272539e+00
61.5          	bodyWall	2.455561e-02	4.297963e+00	1.223868e+00
61.8          	bodyWall	2.382686e-02	4.302596e+00	1.220249e+00
62.1          	bodyWall	5.084307e-02	4.352482e+00	1.260333e+00
62.4          	bodyWall	4.954501e-02	4.460146e+00	1.321317e+00
62.7          	bodyWall	3.487231e-02	4.585361e+00	1.421997e+00
63            	bodyWall	5.743895e-02	4.725285e+00	1.515998e+00
63.3          	bodyWall	9.054113e-02	5.021432e+00	1.696514e+00
63.6          	bodyWall	1.039184e-01	5.851721e+00	1.807457e+00
63.9          	bodyWall	9.952093e-02	6.150569e+00	2.089778e+00
64.2          	bodyWall	1.131753e-01	6.131609e+00	2.189463e+00
64.5          	bodyWall	1.183645e-01	5.780254e+00	2.184383e+00
64.8          	bodyWall	1.531718e-01	5.037861e+00	2.064540e+00
65.1          	bodyWall	1.970503e-01	4.833716e+00	1.834378e+00
65.4          	bodyWall	1.813081e-01	4.602464e+00	1.681735e+00
65.7          	bodyWall	9.546235e-02	4.364670e+00	1.492986e+00
66            	bodyWall	1.126848e-01	4.292641e+00	1.456361e+00
66.3          	bodyWall	2.568581e-02	4.235778e+00	1.395269e+00
66.6          	bodyWall	1.258477e-01	4.197389e+00	1.365569e+00
66.9          	bodyWall	2.566143e-02	4.191686e+00	1.356846e+00
67.2          	bodyWall	6.635937e-02	4.224305e+00	1.294625e+00
67.5          	bodyWall	7.033943e-02	4.263498e+00	1.256284e+00
67.8          	bodyWall	5.718748e-02	4.295058e+00	1.243098e+00
68.1          	bodyWall	7.911857e-02	4.329982e+00	1.246567e+00
68.4          	bodyWall	8.713581e-02	4.362143e+00	1.256597e+00
68.7          	bodyWall	7.128220e-02	4.389251e+00	1.365923e+00
69            	bodyWall	6.393093e-02	4.405883e+00	1.468982e+00
69.3          	bodyWall	7.301205e-02	4.878146e+00	1.570990e+00
69.6          	bodyWall	1.050937e-01	5.554802e+00	1.928047e+00
69.9          	bodyWall	1.479605e-01	7.765931e+00	2.252804e+00
70.2          	bodyWall	1.634434e-01	6.306691e+00	2.118364e+00
70.5          	bodyWall	8.650367e-02	6.163350e+00	2.174293e+00
70.8          	bodyWall	1.339825e-01	5.650147e+00	2.098551e+00
71.1          	bodyWall	6.628837e-02	4.943596e+00	1.879347e+00
71.4          	bodyWall	1.039345e-01	4.782218e+00	1.603459e+00
71.7          	bodyWall	7.234722e-02	4.595065e+00	1.398375e+00
72            	bodyWall	1.609122e-01	4.492597e+00	1.432787e+00
72.3          	bodyWall	1.600839e-01	4.453056e+00	1.434238e+00
72.6          	bodyWall	5.345429e-02	4.440078e+00	1.383018e+00
72.9          	bodyWall	7.461896e-02	4.435362e+00	1.322922e+00
73.2          	bodyWall	1.709633e-01	4.422197e+00	1.297265e+00
73.5          	bodyWall	1.247577e-01	4.417472e+00	1.280284e+00
73.8          	bodyWall	7.917366e-02	4.446664e+00	1.244117e+00
74.1          	bodyWall	5.467416e-02	4.528332e+00	1.247617e+00
74.4          	bodyWall	3.798375e-02	4.655831e+00	1.308886e+00
74.7          	bodyWall	8.817953e-02	4.786899e+00	1.406639e+00
75            	bodyWall	1.081884e-01	4.915040e+00	1.505693e+00
75.3          	bodyWall	3.766773e-02	5.291320e+00	1.868390e+00
75.6          	bodyWall	1.126110e-01	6.033574e+00	2.081427e+00
75.9          	bodyWall	1.110912e-01	6.277501e+00	2.164698e+00
76.2          	bodyWall	1.690340e-01	6.204125e+00	2.192284e+00
76.5          	bodyWall	1.596395e-01	5.749063e+00	2.099027e+00
76.8          	bodyWall	8.680877e-02	5.193021e+00	1.932327e+00
77.1          	bodyWall	1.537116e-01	4.977009e+00	1.684110e+00
77.4          	bodyWall	1.260479e-01	4.680256e+00	1.482558e+00
77.7          	bodyWall	5.598971e-02	4.515238e+00	1.399917e+00
78            	bodyWall	1.146638e-01	4.463203e+00	1.395538e+00
78.3          	bodyWall	1.174636e-01	4.452437e+00	1.372164e+00
78.6          	bodyWall	5.059853e-02	4.409800e+00	1.341005e+00
78.9          	bodyWall	1.318214e-01	4.329995e+00	1.309808e+00
79.2          	bodyWall	2.481099e-02	4.238122e+00	1.258750e+00
79.5          	bodyWall	7.300347e-02	4.166619e+00	1.204573e+00
79.8          	bodyWall	1.072606e-01	4.127710e+00	1.176700e+00
80.1          	bodyWall	1.217222e-01	4.124351e+00	1.196851e+00
80.4          	bodyWall	1.393066e-01	4.156291e+00	1.242043e+00
80.7          	bodyWall	9.423869e-02	4.204326e+00	1.367473e+00
81            	bodyWall	4.321402e-02	4.237085e+00	1.494779e+00
81.3          	bodyWall	1.242394e-01	4.804361e+00	1.717457e+00
81.6          	bodyWall	1.850994e-01	5.770151e+00	1.845963e+00
81.9          	bodyWall	8.182146e-02	6.144801e+00	1.967106e+00
82.2          	bodyWall	6.741003e-02	7.137254e+00	2.124607e+00
82.5          	bodyWall	2.588728e-02	7.424267e+00	2.182688e+00
82.8          	bodyWall	5.116634e-02	5.241996e+00	1.932884e+00
83.1          	bodyWall	8.774189e-02	4.743770e+00	1.791138e+00
83.4          	bodyWall	2.490085e-02	4.570394e+00	1.518114e+00
83.7          	bodyWall	1.333783e-01	4.420305e+00	1.411951e+00
84            	bodyWall	6.842015e-02	4.368576e+00	1.397261e+00
84.3          	bodyWall	3.296175e-02	4.370061e+00	1.337229e+00
84.6          	bodyWall	1.006034e-01	4.380446e+00	1.279508e+00
84.9          	bodyWall	9.512057e-02	4.401198e+00	1.252053e+00
85.2          	bodyWall	1.360948e-01	4.432117e+00	1.229773e+00
85.5          	bodyWall	8.859929e-02	4.470208e+00	1.224802e+00
85.8          	bodyWall	1.019329e-01	4.525050e+00	1.259201e+00
86.1          	bodyWall	2.526610e-02	4.605384e+00	1.297476e+00
86.4          	bodyWall	9.609878e-02	4.689671e+00	1.394975e+00
86.7          	bodyWall	8.330169e-02	4.779709e+00	1.480475e+00
87            	bodyWall	9.439060e-02	4.899092e+00	1.556775e+00
87.3          	bodyWall	1.252388e-01	5.405076e+00	1.954806e+00
87.6          	bodyWall	1.403815e-01	6.106771e+00	2.131007e+00
87.9          	bodyWall	1.010567e-01	6.260612e+00	2.179876e+00
88.2          	bodyWall	1.461606e-01	6.107982e+00	2.151223e+00
88.5          	bodyWall	8.850731e-02	5.637930e+00	2.070975e+00
88.8          	bodyWall	6.681000e-02	5.286542e+00	1.914022e+00
89.1          	bodyWall	1.495472e-01	5.138413e+00	1.649205e+00
89.4          	bodyWall	6.526581e-02	4.929875e+00	1.510824e+00
89.7          	bodyWall	1.497375e-01	4.773040e+00	1.497658e+00
90            	bodyWall	1.924537e-01	4.680462e+00	1.464071e+00
90.3          	bodyWall	1.303601e-01	4.642229e+00	1.369079e+00
90.6          	bodyWall	4.913631e-02	4.585025e+00	1.318066e+00
90.9          	bodyWall	5.939582e-02	4.502626e+00	1.315861e+00
91.2          	bodyWall	9.504739e-02	4.410180e+00	1.292931e+00
91.5          	bodyWall	6.602304e-02	4.335983e+00	1.272046e+00
91.8          	bodyWall	6.771621e-02	4.348485e+00	1.293700e+00
92.1          	bodyWall	1.358364e-01	4.421599e+00	1.312627e+00
92.4          	bodyWall	6.396292e-02	4.495338e+00	1.378077e+00
92.7          	bodyWall	5.408030e-02	4.635023e+00	1.482484e+00
93            	bodyWall	8.453910e-02	4.830563e+00	1.599865e+00
93.3          	bodyWall	7.589056e-02	5.768983e+00	2.047571e+00
93.6          	bodyWall	7.333764e-02	6.402774e+00	2.232279e+00
93.9          	bodyWall	1.139141e-01	6.601822e+00	2.324144e+00
94.2          	bodyWall	1.208972e-01	6.530791e+00	2.323714e+00
94.5          	bodyWall	8.308872e-02	6.186221e+00	2.261528e+00
94.8          	bodyWall	9.720877e-02	5.355415e+00	2.116693e+00
95.1          	bodyWall	7.388148e-02	5.075592e+00	1.728766e+00
95.4          	bodyWall	1.295231e-01	4.845648e+00	1.457728e+00
95.7          	bodyWall	2.115326e-02	4.660282e+00	1.469405e+00
96            	bodyWall	1.405528e-01	4.556467e+00	1.431023e+00
96.3          	bodyWall	8.507290e-02	4.527990e+00	1.373611e+00
96.6          	bodyWall	7.662344e-02	4.504421e+00	1.361237e+00
96.9          	bodyWall	6.928899e-02	4.449031e+00	1.338221e+00
97.2          	bodyWall	1.189798e-01	4.459557e+00	1.327463e+00
97.5          	bodyWall	7.527457e-02	4.490813e+00	1.322217e+00
97.8          	bodyWall	6.523332e-02	4.530026e+00	1.335361e+00
98.1          	bodyWall	5.734748e-02	4.564862e+00	1.390546e+00
98.4          	bodyWall	8.419763e-02	4.594613e+00	1.475685e+00
98.7          	bodyWall	8.995874e-02	4.638475e+00	1.553572e+00
99            	bodyWall	9.163878e-02	5.193990e+00	1.770332e+00
99.3          	bodyWall	1.626102e-01	6.035536e+00	2.073327e+00
99.6          	bodyWall	9.770779e-02	6.299632e+00	2.204604e+00
99.9          	bodyWall	3.649367e-02	6.247546e+00	2.212986e+00
100.2         	bodyWall	5.952460e-02	5.931610e+00	2.186940e+00
100.5         	bodyWall	3.837549e-02	5.303153e+00	2.117812e+00
100.8         	bodyWall	1.609368e-01	5.078067e+00	1.929849e+00
101.1         	bodyWall	1.561559e-01	4.923152e+00	1.726895e+00
101.4         	bodyWall	1.710039e-01	4.747925e+00	1.476200e+00
101.7         	bodyWall	1.881847e-01	4.629281e+00	1.491779e+00
102           	bodyWall	1.370043e-01	4.554984e+00	1.437740e+00
102.3         	bodyWall	5.826457e-02	4.501407e+00	1.364395e+00
102.6         	bodyWall	1.052908e-01	4.468389e+00	1.330570e+00
102.9         	bodyWall	9.223360e-02	4.452717e+00	1.294623e+00
103.2         	bodyWall	5.304691e-02	4.451588e+00	1.291520e+00
103.5         	bodyWall	6.527767e-02	4.449575e+00	1.316072e+00
103.8         	bodyWall	5.442274e-02	4.459699e+00	1.335645e+00
104.1         	bodyWall	5.986120e-02	4.489691e+00	1.357185e+00
104.4         	bodyWall	4.762097e-02	4.536118e+00	1.450205e+00
104.7         	bodyWall	6.052466e-02	4.662805e+00	1.569697e+00
105           	bodyWall	1.201345e-01	4.836674e+00	1.739114e+00
105.3         	bodyWall	5.438585e-02	5.976419e+00	2.166516e+00
105.6         	bodyWall	1.137215e-01	6.447939e+00	2.342738e+00
105.9         	bodyWall	7.640168e-02	6.562918e+00	2.368049e+00
106.2         	bodyWall	8.782993e-02	6.369486e+00	2.297335e+00
106.5         	bodyWall	9.488483e-02	5.786871e+00	2.214833e+00
106.8         	bodyWall	1.223376e-01	5.037225e+00	2.045101e+00
107.1         	bodyWall	1.156047e-01	4.850563e+00	1.690815e+00
107.4         	bodyWall	1.186131e-01	4.621527e+00	1.396506e+00
107.7         	bodyWall	2.885947e-02	4.469056e+00	1.372174e+00
108           	bodyWall	1.502816e-01	4.408978e+00	1.395905e+00
108.3         	bodyWall	9.816053e-02	4.415132e+00	1.375899e+00
108.6         	bodyWall	1.255910e-01	4.411255e+00	1.352085e+00
108.9         	bodyWall	7.547957e-02	4.405745e+00	1.321514e+00
109.2         	bodyWall	9.635901e-02	4.416539e+00	1.293959e+00
109.5         	bodyWall	1.331870e-01	4.441629e+00	1.302573e+00
109.8         	bodyWall	1.132765e-01	4.474779e+00	1.319787e+00
110.1         	bodyWall	9.939217e-02	4.522410e+00	1.401427e+00
110.4         	bodyWall	9.729471e-02	4.596605e+00	1.501836e+00
110.7         	bodyWall	8.461237e-02	4.712216e+00	1.645389e+00
111           	bodyWall	6.456123e-02	5.541042e+00	1.896989e+00
111.3         	bodyWall	1.588469e-01	6.037404e+00	2.171797e+00
111.6         	bodyWall	1.643091e-01	6.389644e+00	2.252912e+00
111.9         	bodyWall	1.110849e-01	6.347557e+00	2.252441e+00
112.2         	bodyWall	1.266130e-01	5.933938e+00	2.207488e+00
112.5         	bodyWall	1.209646e-01	5.256395e+00	2.109076e+00
112.8         	bodyWall	1.135886e-01	5.025419e+00	1.860291e+00
113.1         	bodyWall	6.302672e-02	4.733643e+00	1.565436e+00
113.4         	bodyWall	5.571265e-02	4.545931e+00	1.376216e+00
113.7         	bodyWall	1.121190e-01	4.452529e+00	1.376824e+00
114           	bodyWall	5.365808e-02	4.399635e+00	1.354431e+00
114.3         	bodyWall	1.349117e-02	4.411215e+00	1.329348e+00
114.6         	bodyWall	5.595501e-02	4.438168e+00	1.323956e+00
114.9         	bodyWall	5.917315e-02	4.462701e+00	1.327736e+00
115.2         	bodyWall	9.948975e-02	4.481127e+00	1.358599e+00
115.5         	bodyWall	6.236814e-02	4.493676e+00	1.375432e+00
115.8         	bodyWall	8.104816e-02	4.515783e+00	1.390018e+00
116.1         	bodyWall	7.846808e-02	4.556699e+00	1.432255e+00
116.4         	bodyWall	4.167341e-02	4.615787e+00	1.521495e+00
116.7         	bodyWall	4.503373e-02	4.701250e+00	1.616973e+00
117           	bodyWall	8.759521e-02	4.864826e+00	1.779869e+00
117.3         	bodyWall	1.512160e-01	6.045430e+00	2.160178e+00
117.6         	bodyWall	1.316169e-01	6.428041e+00	2.335964e+00
117.9         	bodyWall	8.555417e-02	6.454526e+00	2.361910e+00
118.2         	bodyWall	1.679446e-01	6.231350e+00	2.313579e+00
118.5         	bodyWall	6.875587e-02	5.667743e+00	2.190983e+00
118.8         	bodyWall	7.850107e-02	5.183535e+00	1.950902e+00
119.1         	bodyWall	1.002492e-01	5.008900e+00	1.665711e+00
119.4         	bodyWall	1.783186e-01	4.851457e+00	1.549241e+00
119.7         	bodyWall	1.013113e-01	4.800350e+00	1.552494e+00
120           	bodyWall	7.435847e-02	4.810621e+00	1.493084e+00
120.3         	bodyWall	8.793327e-02	4.795949e+00	1.446900e+00
120.6         	bodyWall	1.304391e-01	4.737842e+00	1.404359e+00
120.9         	bodyWall	1.468073e-01	4.686630e+00	1.417141e+00
121.2         	bodyWall	1.675528e-01	4.689843e+00	1.421293e+00
121.5         	bodyWall	1.222009e-01	4.781571e+00	1.398506e+00
121.8         	bodyWall	1.640451e-01	4.895654e+00	1.423842e+00
122.1         	bodyWall	1.057882e-01	4.966586e+00	1.525181e+00
122.4         	bodyWall	1.249833e-01	4.994883e+00	1.623154e+00
122.7         	bodyWall	7.878890e-02	5.032318e+00	1.813421e+00
123           	bodyWall	1.055404e-01	5.710409e+00	2.093341e+00
123.3         	bodyWall	9.121133e-02	6.157855e+00	2.259814e+00
123.6         	bodyWall	7.760344e-02	6.273409e+00	2.315748e+00
123.9         	bodyWall	1.280623e-01	6.152767e+00	2.268411e+00
124.2         	bodyWall	8.124803e-02	5.674908e+00	2.158969e+00
124.5         	bodyWall	3.804737e-02	5.186390e+00	2.013023e+00
124.8         	bodyWall	1.163078e-01	4.947167e+00	1.768341e+00
125.1         	bodyWall	1.224596e-01	4.699175e+00	1.608809e+00
125.4         	bodyWall	1.566706e-01	4.574219e+00	1.497856e+00
125.7         	bodyWall	7.816402e-02	4.531262e+00	1.545874e+00
126           	bodyWall	1.096589e-01	4.513059e+00	1.526518e+00
126.3         	bodyWall	1.553855e-01	4.518055e+00	1.443895e+00
126.6         	bodyWall	1.272581e-01	4.539557e+00	1.414300e+00
126.9         	bodyWall	8.746113e-02	4.539803e+00	1.393219e+00
127.2         	bodyWall	8.477514e-02	4.531151e+00	1.383942e+00
127.5         	bodyWall	6.550475e-02	4.526329e+00	1.407883e+00
127.8         	bodyWall	1.320758e-01	4.533283e+00	1.419178e+00
128.1         	bodyWall	1.466850e-01	4.559047e+00	1.463800e+00
128.4         	bodyWall	1.807023e-01	4.608387e+00	1.544863e+00
128.7         	bodyWall	1.297940e-01	4.750898e+00	1.646601e+00
129           	bodyWall	1.526586e-01	5.689648e+00	2.082799e+00
129.3         	bodyWall	8.368074e-02	6.370706e+00	2.271479e+00
129.6         	bodyWall	1.164022e-01	6.612438e+00	2.343260e+00
129.9         	bodyWall	9.895652e-02	6.588001e+00	2.353247e+00
130.2         	bodyWall	1.668891e-01	6.208324e+00	2.287211e+00
130.5         	bodyWall	1.204160e-01	5.313456e+00	2.186276e+00
130.8         	bodyWall	2.011872e-01	5.010160e+00	1.854125e+00
131.1         	bodyWall	1.770980e-01	4.883168e+00	1.555535e+00
131.4         	bodyWall	1.205009e-01	4.920142e+00	1.508779e+00
131.7         	bodyWall	4.787563e-02	4.496134e+00	1.482046e+00
132           	bodyWall	9.548000e-02	4.455418e+00	1.404880e+00
132.3         	bodyWall	1.254186e-01	4.434473e+00	1.390529e+00
132.6         	bodyWall	1.596603e-01	4.450479e+00	1.374492e+00
132.9         	bodyWall	7.300251e-02	4.466569e+00	1.358931e+00
133.2         	bodyWall	1.182312e-01	4.482679e+00	1.368085e+00
133.5         	bodyWall	1.129225e-01	4.516170e+00	1.355447e+00
133.8         	bodyWall	5.300404e-02	4.554488e+00	1.396458e+00
134.1         	bodyWall	1.141296e-01	4.597304e+00	1.483846e+00
134.4         	bodyWall	1.157252e-01	4.671916e+00	1.573419e+00
134.7         	bodyWall	1.474579e-01	4.947882e+00	1.773410e+00
135           	bodyWall	9.737754e-02	5.963363e+00	2.113603e+00
135.3         	bodyWall	8.383988e-02	6.317104e+00	2.244144e+00
135.6         	bodyWall	1.486482e-01	6.343878e+00	2.277429e+00
135.9         	bodyWall	5.895457e-02	6.089366e+00	2.230543e+00
136.2         	bodyWall	3.614427e-02	5.469945e+00	2.123911e+00
136.5         	bodyWall	5.022309e-02	5.148182e+00	1.960652e+00
136.8         	bodyWall	1.402414e-01	4.869892e+00	1.793307e+00
137.1         	bodyWall	7.567932e-02	4.693816e+00	1.520230e+00
137.4         	bodyWall	1.120583e-01	4.599164e+00	1.445691e+00
137.7         	bodyWall	4.969471e-02	4.553178e+00	1.421547e+00
138           	bodyWall	1.095115e-01	4.557134e+00	1.372626e+00
138.3         	bodyWall	9.672239e-02	4.580528e+00	1.367800e+00
138.6         	bodyWall	9.422095e-02	4.587002e+00	1.365265e+00
138.9         	bodyWall	9.374691e-02	4.565017e+00	1.371878e+00
139.2         	bodyWall	1.681134e-01	4.542785e+00	1.387201e+00
139.5         	bodyWall	1.203864e-01	4.535007e+00	1.386244e+00
139.8         	bodyWall	2.097948e-01	4.550475e+00	1.376628e+00
140.1         	bodyWall	1.221514e-01	4.578765e+00	1.439012e+00
140.4         	bodyWall	8.800855e-02	4.621611e+00	1.541346e+00
140.7         	bodyWall	8.234822e-02	4.706599e+00	1.605641e+00
141           	bodyWall	6.299748e-02	5.416962e+00	2.048863e+00
141.3         	bodyWall	8.419542e-02	6.232212e+00	2.263540e+00
141.6         	bodyWall	6.676204e-02	6.519960e+00	2.330289e+00
141.9         	bodyWall	6.531843e-02	6.480557e+00	2.326533e+00