# Probe 0 (0.5 -1.5 0.05)
# Probe 1 (0.5 -1 0.05)
# Probe 2 (0.5 -0.5 0.05)
# Probe 3 (0.5 0 0.05)
# Probe 4 (0.5 0.5 0.05)
# Probe 5 (0.5 1 0.05)
# Probe 6 (0.5 1.5 0.05)
# Probe 7 (2 -1.5 0.05)
# Probe 8 (2 -1.25 0.05)
# Probe 9 (2 -1 0.05)
# Probe 10 (2 -0.75 0.05)
# Probe 11 (2 -0.5 0.05)
# Probe 12 (2 -0.25 0.05)
# Probe 13 (2 0 0.05)
# Probe 14 (2 0.25 0.05)
# Probe 15 (2 0.5 0.05)
# Probe 16 (2 0.75 0.05)
# Probe 17 (2 1 0.05)
# Probe 18 (2 1.25 0.05)
# Probe 19 (2 1.5 0.05)
# Probe 20 (3 -1.5 0.05)
# Probe 21 (3 -1.333 0.05)
# Probe 22 (3 -1.167 0.05)
# Probe 23 (3 -1 0.05)
# Probe 24 (3 -0.833 0.05)
# Probe 25 (3 -0.667 0.05)
# Probe 26 (3 -0.5 0.05)
# Probe 27 (3 -0.333 0.05)
# Probe 28 (3 -0.167 0.05)
# Probe 29 (3 0 0.05)
# Probe 30 (3 0.167 0.05)
# Probe 31 (3 0.333 0.05)
# Probe 32 (3 0.5 0.05)
# Probe 33 (3 0.667 0.05)
# Probe 34 (3 0.833 0.05)
# Probe 35 (3 1 0.05)
# Probe 36 (3 1.167 0.05)
# Probe 37 (3 1.333 0.05)
# Probe 38 (3 1.5 0.05)
# Time        0             1             2             3             4             5             6             7             8             9             10            11            12            13            14            15            16            17            18            19            20            21            22            23            24            25            26            27            28            29            30            31            32            33            34            35            36            37            38           
0             0             0             0             -1.79769e+307 0             0             0             0             0             0             0             0             0             0             0             0             0             0             0             0             0             0             0             0             0             0             0             0             0             0             0             0             0             0             0             0             0             0             0            
0.3           -0.0145408    -0.0339742    -0.0606776    -1.79769e+307 -0.0606739    -0.0339705    -0.0145387    -0.00123859   -0.00113523   -6.30561e-05  0.00205809    0.00473912    0.00703366    0.00795604    0.00703382    0.00473946    0.00205863    -6.22715e-05  -0.00113409   -0.00123734   -0.000513579  -4.26776e-05  0.000375725   0.0007828     0.00119519    0.00158998    0.00193706    0.00221865    0.00239957    0.0024823     0.0023996     0.0022187     0.00193716    0.00159014    0.00119542    0.000783126   0.000376164   -4.21601e-05  -0.000513025 
0.6           -0.0164529    -0.0366536    -0.0625415    -1.79769e+307 -0.0625534    -0.0366629    -0.0164586    -0.00296405   -0.00243932   -0.00137797   0.00093922    0.00404411    0.00666647    0.00768494    0.00666567    0.0040426     0.000937135   -0.00138049   -0.00244217   -0.00296716   -0.000649359  -0.000226652  0.000201228   0.000631884   0.00107754    0.00150286    0.00187389    0.0021736     0.00236527    0.00244766    0.00236503    0.00217312    0.00187319    0.00150196    0.00107646    0.000630633   0.000199836   -0.000228184  -0.000651014 
0.9           -0.0174583    -0.0377946    -0.0605864    -1.79769e+307 -0.0605966    -0.0377962    -0.0174591    -0.00412976   -0.00362273   -0.00251977   -2.78169e-05  0.0035941     0.0068153     0.00806295    0.00681525    0.00359398    -2.80281e-05  -0.00252004   -0.00362301   -0.00413002   -0.00104842   -0.000685231  -0.000252764  0.000214995   0.000716516   0.00120212    0.00162758    0.00197384    0.00219578    0.0022901     0.00219574    0.00197375    0.00162745    0.00120195    0.000716316   0.000214765   -0.000253016  -0.000685506  -0.00104871  
1.2           -0.0187201    -0.0392375    -0.0578908    -1.79769e+307 -0.0578964    -0.0392372    -0.01872      -0.00511119   -0.00474774   -0.00345022   -0.000627556  0.00373849    0.0078875     0.00951835    0.00788749    0.00373851    -0.000627524  -0.00345019   -0.00474773   -0.00511123   -0.00129864   -0.000912708  -0.000455917  6.60319e-05   0.00064256    0.00121449    0.00172327    0.00214129    0.00241058    0.00252304    0.00241058    0.00214129    0.00172328    0.0012145     0.000642573   6.60454e-05   -0.000455904  -0.000912699  -0.00129864  
1.5           -0.0200942    -0.0409108    -0.0532103    -1.79769e+307 -0.0532159    -0.0409107    -0.0200941    -0.00611916   -0.005858     -0.00445545   -0.0012473    0.00400769    0.00939458    0.0115529     0.0093946     0.00400776    -0.00124722   -0.00445534   -0.00585789   -0.0061191    -0.00157683   -0.00112608   -0.000610189  -1.84205e-05  0.000647157   0.00132288    0.00193621    0.00244567    0.00277622    0.00291209    0.00277622    0.00244568    0.00193623    0.00132291    0.000647184   -1.83926e-05  -0.00061016   -0.00112605   -0.00157681  
1.8           -0.0214086    -0.0426899    -0.0451603    -1.79769e+307 -0.0452205    -0.0427002    -0.0214131    -0.00702392   -0.0068377    -0.00543422   -0.00181679   0.00440505    0.0113752     0.0142282     0.0113741     0.00440285    -0.0018198    -0.00543768   -0.00684131   -0.00702746   -0.00176971   -0.00124633   -0.000649628  3.67828e-05   0.000810235   0.00160739    0.00234488    0.00296497    0.00337095    0.0035361     0.00337063    0.00296433    0.00234395    0.00160618    0.000808777   3.51089e-05   -0.000651476  -0.00124831   -0.00177178  
2.1           -0.0227667    -0.0449099    -0.0343826    -1.79769e+307 -0.0343935    -0.0449115    -0.0227682    -0.00786322   -0.00772606   -0.00633233   -0.00243926   0.00477748    0.0136335     0.0173499     0.013633      0.00477677    -0.00243974   -0.00633262   -0.00772638   -0.00786363   -0.0018867    -0.00128873   -0.000594772  0.000203984   0.00110121    0.00203181    0.00290625    0.00365121    0.00414428    0.00434402    0.00414422    0.00365111    0.0029061     0.00203163    0.00110101    0.000203757   -0.000595018  -0.00128899   -0.00188698  
2.4           -0.0241198    -0.0475736    -0.0235349    -1.79769e+307 -0.0235482    -0.047574     -0.0241204    -0.00863625   -0.00853988   -0.00719478   -0.00317813   0.0049793     0.0159987     0.0207161     0.0159984     0.00497961    -0.00317689   -0.00719369   -0.00853912   -0.00863573   -0.00192486   -0.00124491   -0.000451048  0.00046254    0.00149588    0.00257132    0.00359219    0.00447319    0.00506314    0.00530189    0.00506319    0.00447329    0.00359235    0.00257152    0.00149613    0.000462809   -0.000450769  -0.00124463   -0.00192459  
2.7           -0.0252098    -0.0502382    -0.0200105    -1.79769e+307 -0.020009     -0.0502371    -0.0252102    -0.00924868   -0.00921963   -0.00797563   -0.00397898   0.00488776    0.0182776     0.0243018     0.0182778     0.00488962    -0.00397711   -0.00797467   -0.00921916   -0.00924842   -0.00184605   -0.00108733   -0.000203204  0.000815904   0.0019821     0.00320568    0.00437537    0.00539616    0.00608782    0.00636813    0.00608792    0.00539635    0.00437564    0.003206      0.00198244    0.000816232   -0.0002029    -0.00108707   -0.00184581  
3             -0.0260125    -0.0527659    -0.0311729    -1.79769e+307 -0.03116      -0.0527653    -0.0260133    -0.0097081    -0.00975781   -0.00863659   -0.00474544   0.00448782    0.0201099     0.0277118     0.0201115     0.00449122    -0.00474391   -0.00863602   -0.00975765   -0.00970814   -0.00164814   -0.000820489  0.000152266   0.00127753    0.00257566    0.0039532     0.00528038    0.00644993    0.00725129    0.00757716    0.00725143    0.00645019    0.00528072    0.00395357    0.00257602    0.00127785    0.000152531   -0.000820281  -0.00164799  
3.3           -0.0267235    -0.0556438    -0.0646338    -1.79769e+307 -0.0646074    -0.0556445    -0.0267251    -0.0100214    -0.0101465    -0.00916129   -0.00549063   0.00360069    0.0212461     0.0304024     0.0212482     0.00360249    -0.00549023   -0.00916138   -0.0101469    -0.010022     -0.00138224   -0.000493852  0.000563456   0.00179382    0.00322005    0.00474762    0.00623217    0.00755233    0.00846573    0.00883783    0.00846582    0.00755249    0.00623235    0.00474779    0.00322016    0.00179386    0.000563438   -0.000493937  -0.00138238  
3.6           -0.0274995    -0.0590799    -0.123444     -1.79769e+307 -0.123351     -0.0590814    -0.0275022    -0.0102234    -0.0104123    -0.00956769   -0.00618268   0.00251517    0.0218613     0.0328343     0.0218616     0.00251417    -0.00618412   -0.00956938   -0.010414     -0.010225     -0.00105298   -0.000105966  0.00103499    0.00237368    0.00393238    0.00561422    0.00726303    0.00874297    0.00977798    0.0102012     0.00977788    0.00874275    0.00726267    0.00561372    0.00393174    0.00237293    0.00103414    -0.000106893  -0.00105396  
3.9           -0.0280232    -0.0619945    -0.18504      -1.79769e+307 -0.18495      -0.0619927    -0.0280236    -0.0102321    -0.0104581    -0.00974638   -0.00667729   0.00142997    0.021867      0.0347991     0.0218686     0.00143159    -0.00667648   -0.00974604   -0.0104579    -0.0102321    -0.000605138  0.000401335   0.00162521    0.00307323    0.00476699    0.00660682    0.00842662    0.0100753     0.0112409     0.0117213     0.011241      0.0100754     0.0084268     0.006607      0.00476715    0.00307337    0.00162532    0.000401417   -0.000605081 
4.2           -0.0283053    -0.0643176    -0.237812     -1.79769e+307 -0.237752     -0.0643183    -0.0283067    -0.0102191    -0.0104833    -0.00993306   -0.00723927   0.000125123   0.0209433     0.0354081     0.0209451     0.000126836   -0.00723893   -0.0099332    -0.0104836    -0.0102196    -0.000181319  0.000872529   0.00216381    0.0037047     0.00551768    0.00750211    0.00948479    0.0112994     0.0125933     0.0131262     0.0125934     0.0112995     0.00948482    0.00750209    0.00551761    0.00370458    0.00216365    0.000872334   -0.000181549 
4.5           -0.028396     -0.0661134    -0.257374     -1.79769e+307 -0.257226     -0.0662002    -0.0284175    -0.0102262    -0.0105309    -0.0101492    -0.00785844   -0.0013111    0.0194792     0.0349794     0.0194818     -0.00130879   -0.00785733   -0.0101492    -0.0105323    -0.0102288    0.000199868   0.00129269    0.00263931    0.00425884    0.00617712    0.00829527    0.010436      0.0124204     0.0138504     0.0144368     0.0138503     0.0124203     0.0104357     0.00829481    0.00617648    0.00425798    0.00263823    0.00129138    0.000198318  
4.8           -0.0276111    -0.0643533    -0.205772     -1.79769e+307 -0.205913     -0.0643588    -0.0276119    -0.0103326    -0.010746     -0.0105875    -0.00874859   -0.00306679   0.0173743     0.0333932     0.0173766     -0.00306478   -0.0087475    -0.0105871    -0.0107459    -0.0103325    0.000458681   0.00157076    0.00295057    0.00462489    0.00662507    0.00885729    0.0111441     0.0132995     0.0148785     0.0155288     0.0148786     0.0132996     0.0111442     0.00885738    0.00662517    0.00462499    0.00295066    0.00157084    0.000458746  
5.1           -0.0266378    -0.0585945    -0.0804127    -1.79769e+307 -0.0802584    -0.0585887    -0.0266337    -0.0105102    -0.0110776    -0.0111733    -0.00979363   -0.00491497   0.0149599     0.0311052     0.0149617     -0.00491363   -0.00979395   -0.0111743    -0.0110784    -0.0105107    0.000612381   0.00173111    0.00312873    0.00483962    0.00690176    0.00922811    0.011645      0.0139654     0.0156987     0.0164176     0.0156987     0.0139652     0.0116448     0.00922783    0.00690143    0.00483927    0.00312836    0.00173075    0.000612054  
5.4           -0.0265806    -0.0543742    -0.0466023    -1.79769e+307 -0.0470164    -0.054365     -0.0265746    -0.01084      -0.0115437    -0.011843     -0.010822     -0.00651487   0.0126735     0.0286706     0.0126765     -0.00651174   -0.0108197    -0.011841     -0.0115418    -0.0108381    0.000643979   0.0017682     0.00318066    0.00492191    0.00703669    0.00944497    0.0119796     0.0144583     0.016348      0.0171359     0.0163482     0.0144587     0.0119801     0.00944565    0.00703751    0.00492285    0.0031817     0.00176932    0.000645153  
5.7           -0.027162     -0.0530362    -0.0286502    -1.79769e+307 -0.0287012    -0.0530417    -0.0271606    -0.011157     -0.0119588    -0.0123889    -0.0116038    -0.00762865   0.0108385     0.0264616     0.0108416     -0.0076256    -0.011601     -0.0123863    -0.0119562    -0.0111543    0.000653228   0.00178842    0.00321857    0.00498897    0.00715076    0.00963083    0.0122707     0.0148987     0.0169443     0.0177992     0.0169445     0.0148991     0.0122713     0.00963157    0.00715166    0.00498999    0.00321968    0.0017896     0.000654453  
6             -0.0271289    -0.0512442    -0.0244331    -1.79769e+307 -0.0244456    -0.0512535    -0.0271333    -0.0117943    -0.0128162    -0.0135196    -0.0130753    -0.00943697   0.00824461    0.0232914     0.00824652    -0.00943509   -0.0130738    -0.0135188    -0.0128161    -0.0117947    0.000319435   0.00142548    0.00283051    0.00458544    0.00674753    0.00925304    0.0119546     0.0146981     0.016884      0.0177987     0.0168841     0.0146981     0.0119546     0.00925309    0.00674756    0.00458541    0.00283041    0.00142529    0.000319154  
6.3           -0.0256883    -0.0480209    -0.0192844    -1.79769e+307 -0.0192992    -0.0480303    -0.0256943    -0.0128852    -0.0143888    -0.0157092    -0.0159544    -0.0127066    0.00419074    0.0185091     0.00419161    -0.0127057    -0.0159542    -0.0157099    -0.0143904    -0.0128873    -0.000522272  0.000483768   0.00178961    0.0034543     0.00554184    0.00800276    0.0107036     0.0135138     0.0158135     0.0167774     0.0158134     0.0135136     0.0107033     0.00800238    0.00554133    0.00345364    0.0017888     0.000482818   -0.000523348 
6.6           -0.023838     -0.0454073    -0.0173035    -1.79769e+307 -0.0172182    -0.0454166    -0.0238432    -0.0140164    -0.0161225    -0.0182105    -0.0193359    -0.0162396    0.000372967   0.0140495     0.000373828   -0.0162375    -0.0193332    -0.0182077    -0.0161196    -0.0140134    -0.00145409   -0.000565176  0.000622092   0.00217513    0.00416457    0.00655801    0.00923814    0.0121        0.0145038     0.0155149     0.014504      0.0121004     0.00923867    0.00655865    0.00416531    0.00217594    0.000622969   -0.000564246  -0.00145312  
6.9           -0.0247764    -0.0487492    -0.0388415    -1.79769e+307 -0.0387679    -0.0487422    -0.0247749    -0.0140463    -0.0163005    -0.0186123    -0.0199479    -0.0160266    0.00143621    0.0148497     0.00143626    -0.0160255    -0.0199466    -0.0186117    -0.0163003    -0.0140463    -0.00134162   -0.000423374  0.000791711   0.00237169    0.00438929    0.00681999    0.00956234    0.0125383     0.0150788     0.0161539     0.0150789     0.0125385     0.00956264    0.00682029    0.00438956    0.00237191    0.000791902   -0.000423217  -0.00134149  
7.2           -0.0270985    -0.0553409    -0.0914774    -1.79769e+307 -0.091348     -0.0553149    -0.0270849    -0.0134405    -0.0155636    -0.0178907    -0.0195832    -0.0154903    0.002248      0.015281      0.00224754    -0.0154892    -0.0195802    -0.0178867    -0.0155588    -0.0134352    -0.000997724  -3.76912e-05  0.0012064     0.00279879    0.00480825    0.00721276    0.00993868    0.0129526     0.015568      0.0166808     0.0155684     0.0129535     0.00993989    0.00721426    0.00481002    0.00280085    0.00120872    -3.51135e-05  -0.000994916 
7.5           -0.029791     -0.0627482    -0.170536     -1.79769e+307 -0.170463     -0.062713     -0.0297677    -0.0129126    -0.0144777    -0.0163964    -0.0190726    -0.0158921    0.000564671   0.0126707     0.00056389    -0.0158899    -0.0190653    -0.0163849    -0.0144624    -0.0128959    -0.000775472  0.000221816   0.00147911    0.00305096    0.00499902    0.00729675    0.00990289    0.0128445     0.0154464     0.0165575     0.0154474     0.0128463     0.0099056     0.00730029    0.0050034     0.00305618    0.00148514    0.000228578   -0.000768061 
7.8           -0.0320385    -0.0685169    -0.231648     -1.79769e+307 -0.231685     -0.0685039    -0.0320328    -0.0132545    -0.0142624    -0.0155416    -0.0196249    -0.0174906    -0.00272347   0.0079022     -0.00272526   -0.0174909    -0.0196247    -0.0155414    -0.0142612    -0.0132528    -0.000706501  0.000368731   0.0016885     0.00328785    0.00521309    0.00742559    0.00991239    0.0127466     0.0152906     0.0163785     0.0152906     0.0127465     0.00991226    0.00742544    0.00521297    0.00328783    0.00168863    0.00036903    -0.000706027 
8.1           -0.0339877    -0.0734429    -0.253885     -1.79769e+307 -0.253843     -0.0734072    -0.0339748    -0.0144484    -0.0153525    -0.0165616    -0.0229469    -0.0225565    -0.00673083   0.00247471    -0.00672986   -0.0225481    -0.0229367    -0.0165522    -0.0153438    -0.0144404    -0.000775501  0.000421477   0.00187945    0.00360931    0.00563328    0.00786838    0.0103165     0.0130767     0.0155657     0.0166293     0.0155661     0.0130774     0.0103176     0.00786992    0.00563528    0.00361179    0.00188234    0.000424717   -0.000772005 
8.4           -0.0354582    -0.0780279    -0.261548     -1.79769e+307 -0.261559     -0.078042     -0.0354661    -0.015917     -0.0175048    -0.0204436    -0.0309278    -0.0325143    -0.0120751    -0.00327773   -0.0120747    -0.0325067    -0.0309211    -0.020441     -0.0175058    -0.0159195    -0.000965029  0.000357214   0.00199526    0.0039331     0.00617263    0.00857693    0.0110868     0.0138215     0.0162731     0.0173141     0.0162728     0.0138207     0.0110857     0.00857568    0.00617132    0.00393175    0.00199387    0.000355754   -0.000966601 
8.7           -0.0356266    -0.0806491    -0.263377     -1.79769e+307 -0.263511     -0.0806988    -0.0356612    -0.0170518    -0.0194248    -0.0238738    -0.036061     -0.0449567    -0.020035     -0.0100542    -0.0200357    -0.0449564    -0.0360647    -0.023878     -0.0194315    -0.0170604    -0.00126577   0.000123055   0.00191705    0.00411237    0.00661154    0.00923568    0.0119204     0.0146722     0.0170913     0.0181054     0.0170905     0.0146706     0.0119183     0.00923307    0.00660837    0.0041088     0.00191313    0.000118691   -0.00127059  
9             -0.0344122    -0.0802053    -0.261912     -1.79769e+307 -0.261946     -0.0802505    -0.0344409    -0.0176788    -0.0205422    -0.0252632    -0.0357172    -0.0493331    -0.0270779    -0.0159844    -0.0270798    -0.0493405    -0.0357226    -0.0252667    -0.0205468    -0.0176847    -0.00159073   -0.000210263  0.00162597    0.00399766    0.00682374    0.00956305    0.0123792     0.0152452     0.0176749     0.0186612     0.0176744     0.0152442     0.0123778     0.00956114    0.00682175    0.00399551    0.00162345    -0.000213202  -0.00159405  
9.3           -0.0337021    -0.0800164    -0.229384     -1.79769e+307 -0.230242     -0.0800113    -0.0336891    -0.0181054    -0.0211622    -0.0256875    -0.0332886    -0.0448049    -0.0321887    -0.0207137    -0.0321923    -0.0448139    -0.0332879    -0.0256822    -0.0211563    -0.0181001    -0.00176397   -0.000412779  0.00141713    0.00382414    0.0069483     0.0103812     0.0134147     0.0163251     0.0187228     0.0196386     0.0187234     0.0163262     0.0134163     0.0103838     0.00695184    0.00382793    0.001421      -0.000408854  -0.00176007  
9.6           -0.0337183    -0.0777955    -0.144322     -1.79769e+307 -0.145125     -0.0778803    -0.0337192    -0.0181859    -0.0211732    -0.0252277    -0.0309527    -0.037194     -0.0324072    -0.0225647    -0.0324158    -0.0372034    -0.0309532    -0.0252252    -0.02117      -0.0181828    -0.0017553    -0.000418886  0.00139478    0.00378443    0.00687649    0.0107508     0.0144481     0.0176216     0.0200503     0.0209081     0.0200507     0.0176225     0.0144496     0.0107529     0.0068788     0.00378662    0.00139693    -0.000416785  -0.00175325  
9.9           -0.0337795    -0.0735079    -0.0982436    -1.79769e+307 -0.0984025    -0.0735536    -0.0337636    -0.0179028    -0.0206704    -0.0242174    -0.0285543    -0.0322082    -0.02981      -0.0224195    -0.0298242    -0.0322234    -0.028564     -0.0242227    -0.0206727    -0.0179029    -0.00170788   -0.000411013  0.00132851    0.00364709    0.00658719    0.0103384     0.0146976     0.018386      0.0209785     0.0218004     0.0209787     0.0183863     0.0146984     0.0103394     0.00658777    0.00364748    0.00132888    -0.000410574  -0.0017073   
10.2          -0.0334838    -0.0680626    -0.09484      -1.79769e+307 -0.0945445    -0.0680888    -0.0334677    -0.0175279    -0.0200406    -0.023088     -0.0264443    -0.0286661    -0.0261981    -0.0210103    -0.02621      -0.0286749    -0.0264455    -0.0230835    -0.0200331    -0.0175193    -0.00163907   -0.000383962  0.0012633     0.0034689     0.00627421    0.00969994    0.0142302     0.0185439     0.0215398     0.0223622     0.021541      0.0185464     0.0142338     0.00970383    0.0062782     0.00347312    0.00126778    -0.000379235  -0.00163412  
10.5          -0.0326359    -0.0634897    -0.0752664    -1.79769e+307 -0.0755486    -0.0634833    -0.0326241    -0.0173659    -0.0197207    -0.0224386    -0.0251639    -0.0264824    -0.0229687    -0.0197678    -0.0229843    -0.0264967    -0.0251711    -0.0224401    -0.019719     -0.0173625    -0.00169489   -0.000487899  0.00106833    0.00315406    0.00584216    0.0091207     0.0132985     0.0180193     0.0214481     0.022308      0.0214488     0.0180208     0.0133002     0.00912205    0.00584349    0.00315548    0.00106991    -0.000486129  -0.00169291  
10.8          -0.0315017    -0.0601802    -0.0646729    -1.79769e+307 -0.064514     -0.0601553    -0.0314995    -0.0175466    -0.0198941    -0.0225078    -0.0248839    -0.0257069    -0.020786     -0.0189874    -0.0208035    -0.0257234    -0.0248925    -0.0225114    -0.0198953    -0.0175462    -0.00197346   -0.000829062  0.000633124   0.00259252    0.00514009    0.0083598     0.0123434     0.0169662     0.0206936     0.0216434     0.0206938     0.0169665     0.0123433     0.00835944    0.00513973    0.00259213    0.000632761   -0.000829354  -0.00197365  
11.1          -0.0298338    -0.0580709    -0.0949655    -1.79769e+307 -0.0943266    -0.0580579    -0.0298692    -0.0182167    -0.020821     -0.0236662    -0.0261803    -0.0268283    -0.0206428    -0.0196447    -0.0206639    -0.0268503    -0.0261972    -0.0236841    -0.0208397    -0.018236     -0.00265243   -0.0016251    -0.000294237  0.00150811    0.00389015    0.00696207    0.0107872     0.0152058     0.0190826     0.0201698     0.0190812     0.015203      0.0107827     0.00695604    0.00388292    0.0014998     -0.000303497  -0.00163514   -0.00266308  
11.4          -0.027295     -0.054437     -0.131912     -1.79769e+307 -0.131453     -0.0544746    -0.0273329    -0.0195488    -0.0227521    -0.0261713    -0.0292372    -0.0298976    -0.0224508    -0.0217775    -0.022468     -0.0299081    -0.0292384    -0.0261714    -0.0227533    -0.0195523    -0.00382559   -0.00297555   -0.00181782   -0.000198965  0.001997      0.00487511    0.00849039    0.0127255     0.0165767     0.0177853     0.0165765     0.0127251     0.00848962    0.00487388    0.00199545    -0.000200815  -0.00182003   -0.00297817   -0.00382865  
11.7          -0.0268657    -0.0545237    -0.147953     -1.79769e+307 -0.148474     -0.0544822    -0.0268569    -0.0204523    -0.0239813    -0.0276063    -0.0306848    -0.0305315    -0.0208135    -0.0196653    -0.0208321    -0.030539     -0.0306818    -0.0275987    -0.0239707    -0.0204411    -0.00437946   -0.00359565   -0.00248811   -0.000924345  0.0012077     0.00400027    0.00750675    0.0115808     0.0153563     0.0167398     0.0153568     0.0115822     0.00750858    0.00400267    0.0012107     -0.000920667  -0.00248385   -0.00359089   -0.00437432  
12            -0.0281587    -0.058716     -0.1547       -1.79769e+307 -0.156334     -0.0586883    -0.0281398    -0.0205016    -0.0241339    -0.0278048    -0.0306263    -0.0294613    -0.0168652    -0.0148035    -0.0168822    -0.0294661    -0.0306251    -0.0277981    -0.0241242    -0.0204905    -0.00430743   -0.00352176   -0.0023971    -0.00081955   0.00132359    0.0040998     0.00753321    0.0114917     0.01513       0.0165967     0.0151305     0.0114931     0.00753509    0.00410221    0.00132668    -0.000815686  -0.00239258   -0.00351671   -0.00430196  
12.3          -0.0297721    -0.0646714    -0.170077     -1.79769e+307 -0.173011     -0.0647422    -0.0297607    -0.019816     -0.023573     -0.0276202    -0.0306311    -0.0287109    -0.013518     -0.0101208    -0.0135349    -0.0287253    -0.0306424    -0.0276282    -0.0235763    -0.0198158    -0.00402462   -0.00325578   -0.00214178   -0.000575989  0.00153904    0.00422551    0.00747284    0.0111987     0.0146309     0.0161288     0.0146301     0.0111978     0.00747132    0.00422339    0.00153681    -0.000577939  -0.00214331   -0.00325684   -0.00402523  
12.6          -0.0323181    -0.0724653    -0.205718     -1.79769e+307 -0.210138     -0.0723654    -0.0321945    -0.0187124    -0.0222899    -0.0268015    -0.0307045    -0.0279162    -0.0112775    -0.00620085   -0.0112965    -0.0279479    -0.0307294    -0.0268138    -0.022281     -0.0186898    -0.00348877   -0.00269436   -0.0015601    1.3649e-05    0.00209493    0.00466894    0.00766811    0.0110749     0.0142402     0.0157027     0.0142393     0.0110741     0.00766698    0.0046682     0.00209555    1.64981e-05   -0.00155464   -0.00268616   -0.00347788  
12.9          -0.0348735    -0.0800433    -0.253446     -1.79769e+307 -0.257276     -0.0799368    -0.0347927    -0.0177605    -0.0208601    -0.0259588    -0.031701     -0.0282991    -0.0118259    -0.00567138   -0.0118578    -0.028336     -0.0317234    -0.025956     -0.0208197    -0.0177073    -0.00289535   -0.00202994   -0.000841394  0.000753724   0.00279504    0.00523518    0.00800387    0.0110413     0.0138837     0.0152524     0.0138905     0.0110493     0.00801138    0.00524306    0.00280477    0.00076642    -0.00082528   -0.00201031   -0.00287251  
13.2          -0.0359986    -0.0845451    -0.26455      -1.79769e+307 -0.263304     -0.0845906    -0.0360326    -0.0179722    -0.0208422    -0.0266041    -0.035903     -0.0333657    -0.0170015    -0.0110849    -0.0170088    -0.0333798    -0.0359385    -0.0266276    -0.0208501    -0.0179818    -0.00275418   -0.0018245    -0.000583806  0.00103184    0.0030331     0.00535003    0.00789722    0.0105971     0.0131112     0.0143042     0.0131062     0.0105892     0.00788707    0.00533888    0.0030223     0.0010219     -0.000592784  -0.00183253   -0.00276139  
13.5          -0.0366366    -0.0870001    -0.238958     -1.79769e+307 -0.239105     -0.0869057    -0.0366065    -0.0192416    -0.0221876    -0.0294146    -0.0450774    -0.04448      -0.0248031    -0.0191463    -0.0248055    -0.0444761    -0.0451354    -0.0294242    -0.0221659    -0.0192217    -0.00286138   -0.0018132    -0.000445059  0.00128956    0.00337043    0.00569635    0.00815119    0.0106136     0.012821      0.0138556     0.0128164     0.0106075     0.00814464    0.00569139    0.00336837    0.00129063    -0.00044146   -0.00180756   -0.0028542   
13.8          -0.0372409    -0.0885963    -0.196572     -1.79769e+307 -0.196022     -0.0883756    -0.0371305    -0.0211935    -0.0248917    -0.0346835    -0.0585861    -0.0608745    -0.0343962    -0.0274746    -0.0343852    -0.0608582    -0.0586902    -0.0347077    -0.0248692    -0.0211622    -0.00303658   -0.00181859   -0.000243844  0.00171544    0.00400779    0.00649533    0.00901253    0.0113886     0.013389      0.0142614     0.0133851     0.0113848     0.00901048    0.00649745    0.00401496    0.00172736    -0.000228471  -0.00180084   -0.00301717  
14.1          -0.0378309    -0.0872777    -0.149402     -1.79769e+307 -0.14738      -0.0870354    -0.0377247    -0.023059     -0.0278648    -0.0384025    -0.0675759    -0.07829      -0.0455323    -0.0358996    -0.0455005    -0.0782719    -0.0677074    -0.0384102    -0.0278504    -0.0230321    -0.00329872   -0.00188325   -3.23399e-05  0.00224096    0.00477083    0.0074614     0.0102085     0.0126337     0.014493      0.0152013     0.0144884     0.0126293     0.0102069     0.0074647     0.00477991    0.0022564     -1.42649e-05  -0.00186455   -0.00327974  
14.4          -0.038384     -0.0840102    -0.123838     -1.79769e+307 -0.121393     -0.0836575    -0.0382714    -0.0241621    -0.0295363    -0.0400101    -0.0665937    -0.0879533    -0.0547277    -0.0426605    -0.0546666    -0.0879066    -0.0666929    -0.0400147    -0.0295147    -0.02413      -0.00364402   -0.00212211   -5.62326e-05  0.00258515    0.00552819    0.00843189    0.0114083     0.0139933     0.015788      0.0163159     0.0157833     0.01399       0.0114098     0.00843997    0.00554394    0.00260604    -3.48014e-05  -0.00210045   -0.00362188  
14.7          -0.038972     -0.0802376    -0.11723      -1.79769e+307 -0.114677     -0.0796547    -0.0388147    -0.0250598    -0.0305461    -0.0403188    -0.0603173    -0.0883538    -0.0630515    -0.0489248    -0.0629406    -0.0882425    -0.0603038    -0.0402994    -0.0305158    -0.0250219    -0.00398618   -0.00245137   -0.000389172  0.00250442    0.00611988    0.00973379    0.0130087     0.0157127     0.0173904     0.0177041     0.0173859     0.0157107     0.0130125     0.00974502    0.00613726    0.00252228    -0.000370057  -0.00242949   -0.00396246  