# Probe 0 (0.5 -1.5 0.05)
# Probe 1 (0.5 -1 0.05)
# Probe 2 (0.5 -0.5 0.05)
# Probe 3 (0.5 0 0.05)
# Probe 4 (0.5 0.5 0.05)
# Probe 5 (0.5 1 0.05)
# Probe 6 (0.5 1.5 0.05)
# Probe 7 (2 -1.5 0.05)
# Probe 8 (2 -1.25 0.05)
# Probe 9 (2 -1 0.05)
# Probe 10 (2 -0.75 0.05)
# Probe 11 (2 -0.5 0.05)
# Probe 12 (2 -0.25 0.05)
# Probe 13 (2 0 0.05)
# Probe 14 (2 0.25 0.05)
# Probe 15 (2 0.5 0.05)
# Probe 16 (2 0.75 0.05)
# Probe 17 (2 1 0.05)
# Probe 18 (2 1.25 0.05)
# Probe 19 (2 1.5 0.05)
# Probe 20 (3 -1.5 0.05)
# Probe 21 (3 -1.333 0.05)
# Probe 22 (3 -1.167 0.05)
# Probe 23 (3 -1 0.05)
# Probe 24 (3 -0.833 0.05)
# Probe 25 (3 -0.667 0.05)
# Probe 26 (3 -0.5 0.05)
# Probe 27 (3 -0.333 0.05)
# Probe 28 (3 -0.167 0.05)
# Probe 29 (3 0 0.05)
# Probe 30 (3 0.167 0.05)
# Probe 31 (3 0.333 0.05)
# Probe 32 (3 0.5 0.05)
# Probe 33 (3 0.667 0.05)
# Probe 34 (3 0.833 0.05)
# Probe 35 (3 1 0.05)
# Probe 36 (3 1.167 0.05)
# Probe 37 (3 1.333 0.05)
# Probe 38 (3 1.5 0.05)
# Time        0             1             2             3             4             5             6             7             8             9             10            11            12            13            14            15            16            17            18            19            20            21            22            23            24            25            26            27            28            29            30            31            32            33            34            35            36            37            38           
0             (0 0 0)       (0 0 0)       (0 0 0)       (-1.79769e+307 -1.79769e+307 -1.79769e+307) (0 0 0)       (0 0 0)       (0 0 0)       (0 0 0)       (0 0 0)       (0 0 0)       (0 0 0)       (0 0 0)       (0 0 0)       (0 0 0)       (0 0 0)       (0 0 0)       (0 0 0)       (0 0 0)       (0 0 0)       (0 0 0)       (0 0 0)       (0 0 0)       (0 0 0)       (0 0 0)       (0 0 0)       (0 0 0)       (0 0 0)       (0 0 0)       (0 0 0)       (0 0 0)       (0 0 0)       (0 0 0)       (0 0 0)       (0 0 0)       (0 0 0)       (0 0 0)       (0 0 0)       (0 0 0)       (0 0 0)      
0.3           (0.459345 -0.00245336 -6.91782e-24) (0.507008 -0.00489998 1.53191e-23) (2.11168e-17 3.46691e-21 -3.29835e-40) (-1.79769e+307 -1.79769e+307 -1.79769e+307) (0 0 0)       (0.507011 0.00489389 -1.29246e-22) (0.459346 0.00245203 -3.43527e-23) (0.402518 0.0341754 2.86789e-22) (0.396888 0.0388482 -1.23038e-22) (0.386342 0.0453054 -1.51179e-23) (0.37055 0.0476433 1.65154e-22) (0.351045 0.0416547 -1.20609e-22) (0.335105 0.0243782 5.10222e-23) (0.328427 5.61582e-07 1.84856e-23) (0.335104 -0.0243771 -4.66377e-23) (0.351045 -0.0416538 1.01953e-22) (0.370549 -0.0476426 -1.72496e-22) (0.386341 -0.0453051 8.61778e-24) (0.396887 -0.038848 1.22925e-22) (0.402517 -0.0341755 -1.58674e-22) (0.393239 0.015097 0) (0.391269 0.0155814 0) (0.389 0.0155917 0) (0.386535 0.0150488 0) (0.383959 0.0139147 0) (0.381495 0.0121649 0) (0.379331 0.00982033 0) (0.37758 0.00687962 0) (0.376433 0.00354982 0) (0.375869 2.15943e-07 0) (0.376433 -0.00354939 0) (0.37758 -0.00687919 0) (0.379331 -0.00981991 0) (0.381495 -0.0121645 0) (0.383959 -0.0139144 0) (0.386535 -0.0150485 0) (0.389 -0.0155915 0) (0.391268 -0.0155813 0) (0.393239 -0.0150969 0)
0.6           (0.459904 -0.00387106 -8.01289e-24) (0.505685 -0.00680589 1.58985e-23) (1.4507e-17 4.51805e-21 -3.40339e-40) (-1.79769e+307 -1.79769e+307 -1.79769e+307) (0 0 0)       (0.505693 0.00680394 -1.39144e-22) (0.459906 0.00387102 -3.76367e-23) (0.403783 0.0366074 5.38213e-22) (0.399146 0.0414162 -3.14934e-22) (0.387534 0.0493749 -1.17128e-22) (0.369973 0.0531706 5.73332e-23) (0.347385 0.0477214 -9.86713e-23) (0.328256 0.0283103 4.87527e-23) (0.320151 4.93936e-07 1.7801e-23) (0.328255 -0.0283094 -4.45159e-23) (0.347384 -0.0477207 8.27944e-23) (0.369972 -0.0531702 -6.2098e-23) (0.387533 -0.0493748 -9.76897e-24) (0.399146 -0.0414163 3.15208e-22) (0.403783 -0.0366076 -1.20402e-22) (0.394148 0.0157314 0) (0.39172 0.0165568 0) (0.389051 0.0167569 0) (0.386229 0.0162919 0) (0.383296 0.0151442 0) (0.380497 0.013295 0) (0.378042 0.010767 0) (0.376049 0.00755937 0) (0.374745 0.00390472 0) (0.374111 1.70042e-07 0) (0.374745 -0.00390438 0) (0.376049 -0.00755905 0) (0.378042 -0.0107667 0) (0.380497 -0.0132947 0) (0.383296 -0.015144 0) (0.386229 -0.0162918 0) (0.38905 -0.0167568 0) (0.39172 -0.0165568 0) (0.394148 -0.0157314 0)
0.9           (0.460739 -0.00499176 -8.84676e-24) (0.504736 -0.00698752 1.59917e-23) (1.13992e-17 4.75683e-21 -3.29191e-40) (-1.79769e+307 -1.79769e+307 -1.79769e+307) (0 0 0)       (0.504743 0.0069928 -1.43199e-22) (0.460741 0.00499285 -3.97308e-23) (0.405333 0.0383238 7.28258e-22) (0.399735 0.0458951 -4.62204e-22) (0.389309 0.0534458 -2.09597e-22) (0.369728 0.0593047 -4.20152e-23) (0.343616 0.0548438 -8.17289e-23) (0.320401 0.0331595 5.03741e-23) (0.310363 5.08471e-07 1.87946e-23) (0.320401 -0.0331586 -4.61459e-23) (0.343616 -0.0548431 6.7616e-23) (0.369727 -0.0593044 3.88843e-23) (0.389308 -0.0534458 -2.56705e-23) (0.399734 -0.0458954 4.62226e-22) (0.405333 -0.0383241 -1.21724e-22) (0.395118 0.0168131 0) (0.39215 0.0178016 0) (0.389034 0.0180846 0) (0.38582 0.0176548 0) (0.382499 0.0164805 0) (0.379338 0.01453 0) (0.376561 0.0118105 0) (0.374302 0.00831599 0) (0.372823 0.00430202 0) (0.372115 1.5246e-07 0) (0.372823 -0.00430172 0) (0.374302 -0.0083157 0) (0.376561 -0.0118103 0) (0.379337 -0.0145298 0) (0.382499 -0.0164804 0) (0.38582 -0.0176548 0) (0.389034 -0.0180846 0) (0.392149 -0.0178016 0) (0.395118 -0.0168132 0)
1.2           (0.461782 -0.00593847 -9.94982e-24) (0.504643 -0.00591037 1.61691e-23) (9.29812e-18 6.71378e-21 -3.13406e-40) (-1.79769e+307 -1.79769e+307 -1.79769e+307) (0 0 0)       (0.504646 0.0059196 -1.48391e-22) (0.461782 0.00594016 -4.2626e-23) (0.407166 0.0397416 8.98091e-22) (0.401562 0.0490222 -5.70055e-22) (0.39106 0.0579374 -2.84287e-22) (0.369963 0.0658357 -1.16018e-22) (0.339906 0.0629919 -7.86707e-23) (0.311715 0.0389588 5.87421e-23) (0.299199 5.95447e-07 2.22623e-23) (0.311715 -0.0389576 -5.38718e-23) (0.339905 -0.0629911 6.37285e-23) (0.369962 -0.0658355 1.13437e-22) (0.391059 -0.0579376 -3.81409e-23) (0.401562 -0.0490226 5.70056e-22) (0.407166 -0.039742 -1.47684e-22) (0.395949 0.0183305 0) (0.392503 0.0192993 0) (0.388953 0.0195747 0) (0.385347 0.0191318 0) (0.381634 0.0179098 0) (0.37809 0.0158513 0) (0.374968 0.012934 0) (0.372419 0.00913688 0) (0.37075 0.00473571 0) (0.369964 1.58239e-07 0) (0.37075 -0.0047354 0) (0.372418 -0.0091366 0) (0.374968 -0.0129338 0) (0.37809 -0.0158512 0) (0.381634 -0.0179097 0) (0.385347 -0.0191318 0) (0.388953 -0.0195747 0) (0.392502 -0.0192993 0) (0.395949 -0.0183305 0)
1.5           (0.462996 -0.00674995 -1.11744e-23) (0.50557 -0.00401685 1.64019e-23) (7.91627e-18 1.36745e-21 -2.81858e-40) (-1.79769e+307 -1.79769e+307 -1.79769e+307) (0 0 0)       (0.505568 0.00402467 -1.54449e-22) (0.462996 0.0067517 -4.58789e-23) (0.409124 0.0408961 1.06868e-21) (0.403757 0.0513027 -6.70573e-22) (0.392354 0.0628037 -3.54776e-22) (0.37087 0.0725109 -1.94537e-22) (0.336462 0.0721459 -7.56527e-23) (0.302364 0.0457894 7.04387e-23) (0.286733 7.67812e-07 2.70656e-23) (0.302363 -0.0457879 -6.45787e-23) (0.33646 -0.0721448 5.90514e-23) (0.370868 -0.0725107 1.92316e-22) (0.392353 -0.062804 -5.10697e-23) (0.403756 -0.0513032 6.70563e-22) (0.409124 -0.0408966 -1.9114e-22) (0.396455 0.0201319 0) (0.392723 0.0209611 0) (0.388787 0.021193 0) (0.384827 0.020706 0) (0.380745 0.0194172 0) (0.376815 0.0172414 0) (0.373327 0.014121 0) (0.370465 0.0100094 0) (0.368592 0.0051996 0) (0.367723 1.97395e-07 0) (0.368591 -0.00519922 0) (0.370465 -0.0100091 0) (0.373327 -0.0141207 0) (0.376815 -0.0172412 0) (0.380744 -0.0194171 0) (0.384827 -0.020706 0) (0.388787 -0.021193 0) (0.392723 -0.0209611 0) (0.396454 -0.0201319 0)
1.8           (0.464367 -0.00748031 -1.23685e-23) (0.507712 -0.00119025 1.67323e-23) (8.01462e-18 -8.82587e-21 -2.32003e-40) (-1.79769e+307 -1.79769e+307 -1.79769e+307) (0 0 0)       (0.50771 0.00119667 -1.6095e-22) (0.464366 0.00748187 -4.9028e-23) (0.411061 0.0419115 1.22261e-21) (0.405731 0.0533397 -7.5989e-22) (0.394409 0.0666859 -4.14523e-22) (0.372182 0.0793434 -2.71019e-22) (0.333584 0.0822723 -7.29557e-23) (0.292459 0.0538017 8.57434e-23) (0.27297 9.83222e-07 3.32752e-23) (0.292458 -0.0537997 -7.83426e-23) (0.333582 -0.0822709 5.3703e-23) (0.37218 -0.0793433 2.6922e-22) (0.394407 -0.0666865 -6.40565e-23) (0.405731 -0.0533403 7.60234e-22) (0.411061 -0.0419121 -2.32546e-22) (0.39657 0.02206 0) (0.392771 0.0226795 0) (0.388516 0.0228652 0) (0.384249 0.0223424 0) (0.379837 0.0209857 0) (0.375538 0.018687 0) (0.371676 0.0153585 0) (0.368487 0.0109229 0) (0.366393 0.00568805 0) (0.365437 2.45556e-07 0) (0.366393 -0.00568758 0) (0.368487 -0.0109225 0) (0.371676 -0.0153581 0) (0.375537 -0.0186867 0) (0.379837 -0.0209855 0) (0.384248 -0.0223423 0) (0.388516 -0.0228652 0) (0.392771 -0.0226795 0) (0.396569 -0.02206 0)
2.1           (0.465882 -0.00819262 -1.35579e-23) (0.510544 0.00141109 1.73272e-23) (8.76378e-18 -5.0981e-21 -1.73744e-40) (-1.79769e+307 -1.79769e+307 -1.79769e+307) (0 0 0)       (0.510539 -0.0014054 -1.69056e-22) (0.465881 0.00819364 -5.22537e-23) (0.412879 0.0428302 1.36547e-21) (0.407684 0.0550476 -8.44373e-22) (0.396936 0.069788 -4.72313e-22) (0.37404 0.0858583 -3.53734e-22) (0.331614 0.0932809 -6.67884e-23) (0.282027 0.0632776 1.03242e-22) (0.257867 1.35032e-06 4.03348e-23) (0.282025 -0.0632746 -9.35953e-23) (0.331611 -0.0932788 4.46776e-23) (0.374038 -0.0858586 3.51819e-22) (0.396935 -0.0697891 -7.66384e-23) (0.407684 -0.0550485 8.44403e-22) (0.412879 -0.0428309 -2.72104e-22) (0.396374 0.0239381 0) (0.392599 0.0243898 0) (0.38817 0.024507 0) (0.383618 0.0239802 0) (0.378911 0.0225834 0) (0.374271 0.0201696 0) (0.370044 0.0166309 0) (0.366523 0.0118648 0) (0.364199 0.00619403 0) (0.363152 3.28172e-07 0) (0.364199 -0.0061934 0) (0.366522 -0.0118642 0) (0.370044 -0.0166305 0) (0.37427 -0.0201692 0) (0.37891 -0.0225832 0) (0.383618 -0.02398 0) (0.38817 -0.024507 0) (0.392599 -0.0243898 0) (0.396374 -0.0239382 0)
2.4           (0.467539 -0.0087981 -1.46992e-23) (0.514275 0.00367772 1.83444e-23) (8.2454e-18 2.98186e-20 -1.32249e-40) (-1.79769e+307 -1.79769e+307 -1.79769e+307) (0 0 0)       (0.514268 -0.0036729 -1.78933e-22) (0.467538 0.00879848 -5.55314e-23) (0.414548 0.0436547 1.49672e-21) (0.409568 0.0565023 -9.25367e-22) (0.399428 0.0725354 -5.32226e-22) (0.376702 0.0915864 -4.44435e-22) (0.330972 0.104867 -5.36689e-23) (0.270959 0.0746709 1.21747e-22) (0.241341 2.0493e-06 4.72824e-23) (0.270958 -0.0746662 -1.08322e-22) (0.330967 -0.104865 2.89847e-23) (0.376699 -0.0915881 4.42856e-22) (0.399427 -0.0725369 -8.90916e-23) (0.409568 -0.0565032 9.25292e-22) (0.414548 -0.0436552 -3.07348e-22) (0.396004 0.0256344 0) (0.392217 0.0260244 0) (0.387745 0.0260878 0) (0.38297 0.0255671 0) (0.377971 0.0241719 0) (0.373008 0.0216696 0) (0.368437 0.0179252 0) (0.364594 0.0128241 0) (0.362039 0.00671147 0) (0.360897 4.17624e-07 0) (0.362038 -0.00671068 0) (0.364593 -0.0128234 0) (0.368436 -0.0179247 0) (0.373008 -0.0216692 0) (0.37797 -0.0241716 0) (0.382969 -0.0255669 0) (0.387744 -0.0260878 0) (0.392217 -0.0260244 0) (0.396004 -0.0256344 0)
2.7           (0.469387 -0.00903465 -1.56341e-23) (0.519191 0.00588825 1.95032e-23) (4.4486e-18 9.55775e-20 -1.54004e-40) (-1.79769e+307 -1.79769e+307 -1.79769e+307) (0 0 0)       (0.519184 -0.00588482 -1.88833e-22) (0.469386 0.0090346 -5.82288e-23) (0.416042 0.0444118 1.60171e-21) (0.411367 0.0577615 -9.9473e-22) (0.401915 0.0748993 -5.88852e-22) (0.379938 0.0965345 -5.41118e-22) (0.332076 0.116474 -3.22591e-23) (0.259102 0.0882335 1.40129e-22) (0.222895 2.91243e-06 5.49057e-23) (0.259098 -0.088227 -1.22955e-22) (0.332069 -0.116475 5.97372e-24) (0.379937 -0.096537 5.40326e-22) (0.401914 -0.0749005 -1.00935e-22) (0.411367 -0.0577621 9.94688e-22) (0.416042 -0.0444121 -3.31342e-22) (0.395607 0.0270908 0) (0.391721 0.0275203 0) (0.387229 0.0275937 0) (0.382316 0.027086 0) (0.377041 0.0257197 0) (0.371751 0.0231669 0) (0.366848 0.0192323 0) (0.362707 0.0137941 0) (0.35993 0.00723668 0) (0.358693 4.47643e-07 0) (0.35993 -0.00723584 0) (0.362706 -0.0137934 0) (0.366847 -0.0192318 0) (0.371751 -0.0231666 0) (0.37704 -0.0257194 0) (0.382316 -0.0270859 0) (0.387229 -0.0275936 0) (0.391721 -0.0275202 0) (0.395607 -0.0270908 0)
3             (0.471292 -0.00908412 -1.63232e-23) (0.525435 0.0074933 2.11388e-23) (-2.69131e-18 1.61779e-19 -2.78816e-40) (-1.79769e+307 -1.79769e+307 -1.79769e+307) (0 0 0)       (0.52543 -0.00749138 -1.98401e-22) (0.47129 0.00908351 -6.01986e-23) (0.417366 0.0451293 1.68299e-21) (0.413099 0.0588346 -1.05205e-21) (0.404359 0.0768938 -6.38411e-22) (0.383359 0.100879 -6.31219e-22) (0.335015 0.127392 -5.01534e-24) (0.247087 0.103446 1.55566e-22) (0.202442 3.48943e-06 6.14422e-23) (0.247082 -0.103439 -1.33317e-22) (0.335009 -0.127397 -2.17822e-23) (0.383359 -0.10088 6.31522e-22) (0.404359 -0.0768941 -1.11365e-22) (0.413099 -0.0588348 1.05204e-21) (0.417366 -0.0451294 -3.44273e-22) (0.395273 0.0282886 0) (0.391214 0.0288346 0) (0.386669 0.0289871 0) (0.381657 0.0285266 0) (0.376144 0.0272075 0) (0.370515 0.0246405 0) (0.365273 0.0205429 0) (0.360864 0.0147712 0) (0.357893 0.00776754 0) (0.35656 4.27046e-07 0) (0.357893 -0.00776675 0) (0.360864 -0.0147705 0) (0.365273 -0.0205424 0) (0.370515 -0.0246402 0) (0.376144 -0.0272073 0) (0.381657 -0.0285265 0) (0.386669 -0.028987 0) (0.391213 -0.0288345 0) (0.395272 -0.0282886 0)
3.3           (0.473156 -0.00979136 -1.68923e-23) (0.532978 0.00774017 2.3144e-23) (-1.24913e-17 2.07117e-19 -5.34356e-40) (-1.79769e+307 -1.79769e+307 -1.79769e+307) (0 0 0)       (0.532972 -0.00774006 -2.09316e-22) (0.473154 0.00978967 -6.19132e-23) (0.41856 0.0458055 1.7407e-21) (0.414759 0.0597254 -1.09578e-21) (0.406682 0.0785564 -6.79466e-22) (0.386927 0.104684 -7.21681e-22) (0.339611 0.137494 3.95543e-23) (0.235743 0.119213 1.66213e-22) (0.179969 3.55011e-06 6.31532e-23) (0.235734 -0.119209 -1.3336e-22) (0.339612 -0.137494 -6.64387e-23) (0.386927 -0.104683 7.23101e-22) (0.406681 -0.0785561 -1.20225e-22) (0.414758 -0.0597253 1.09582e-21) (0.418559 -0.0458055 -3.48423e-22) (0.395024 0.0292398 0) (0.390767 0.0299462 0) (0.386131 0.0302313 0) (0.381012 0.0298671 0) (0.37529 0.0286246 0) (0.369322 0.026077 0) (0.363719 0.0218541 0) (0.359062 0.015764 0) (0.355933 0.00830956 0) (0.354508 4.09725e-07 0) (0.355933 -0.00830881 0) (0.359061 -0.0157634 0) (0.363718 -0.0218536 0) (0.369321 -0.0260766 0) (0.37529 -0.0286243 0) (0.381012 -0.0298669 0) (0.38613 -0.0302311 0) (0.390766 -0.029946 0) (0.395024 -0.0292396 0)
3.6           (0.475035 -0.0111366 -1.74619e-23) (0.540724 0.0061223 2.53807e-23) (-2.27395e-17 1.84301e-19 -8.62742e-40) (-1.79769e+307 -1.79769e+307 -1.79769e+307) (0 0 0)       (0.540716 -0.00612612 -2.22235e-22) (0.475032 0.0111341 -6.37059e-23) (0.419689 0.0463883 1.78009e-21) (0.416272 0.060461 -1.12885e-21) (0.40886 0.0798989 -7.15742e-22) (0.390648 0.1079 -8.15277e-22) (0.345443 0.146545 9.40687e-23) (0.225777 0.133805 1.73429e-22) (0.155095 3.4033e-06 6.38568e-23) (0.225764 -0.133803 -1.29773e-22) (0.345446 -0.146538 -1.20914e-22) (0.390646 -0.107898 8.17553e-22) (0.408859 -0.0798981 -1.27556e-22) (0.416271 -0.0604607 1.12902e-21) (0.419688 -0.0463882 -3.46753e-22) (0.394855 0.0299669 0) (0.390418 0.0308493 0) (0.385662 0.0313035 0) (0.380419 0.0310799 0) (0.374491 0.0299544 0) (0.36819 0.027465 0) (0.362199 0.023167 0) (0.357295 0.0167937 0) (0.354047 0.00887778 0) (0.352531 4.19876e-07 0) (0.354047 -0.00887701 0) (0.357294 -0.0167931 0) (0.362198 -0.0231665 0) (0.36819 -0.0274646 0) (0.374491 -0.029954 0) (0.380419 -0.0310796 0) (0.385661 -0.0313032 0) (0.390417 -0.030849 0) (0.394855 -0.0299667 0)
3.9           (0.476949 -0.0121473 -1.78677e-23) (0.548032 0.00294313 2.78977e-23) (-3.06801e-17 8.33784e-20 -1.13803e-39) (-1.79769e+307 -1.79769e+307 -1.79769e+307) (0 0 0)       (0.548024 -0.00295201 -2.33521e-22) (0.476946 0.0121448 -6.48394e-23) (0.420793 0.0468337 1.78708e-21) (0.417573 0.0610746 -1.14238e-21) (0.410905 0.0809226 -7.41397e-22) (0.394445 0.11047 -8.95433e-22) (0.352148 0.153882 1.47404e-22) (0.217597 0.145818 1.75726e-22) (0.128111 3.31123e-06 6.36674e-23) (0.21759 -0.145813 -1.21859e-22) (0.352147 -0.153876 -1.74021e-22) (0.394442 -0.110467 8.9767e-22) (0.410903 -0.0809215 -1.31539e-22) (0.417571 -0.0610741 1.14237e-21) (0.420792 -0.0468335 -3.35491e-22) (0.394757 0.0304978 0) (0.390175 0.0315546 0) (0.385288 0.0321968 0) (0.379914 0.032144 0) (0.373777 0.0311738 0) (0.36715 0.0287859 0) (0.360751 0.0244752 0) (0.355581 0.017882 0) (0.352238 0.00949123 0) (0.350629 4.5311e-07 0) (0.352238 -0.0094904 0) (0.355581 -0.0178813 0) (0.360751 -0.0244746 0) (0.36715 -0.0287854 0) (0.373777 -0.0311732 0) (0.379913 -0.0321435 0) (0.385288 -0.0321963 0) (0.390174 -0.0315542 0) (0.394756 -0.0304975 0)
4.2           (0.478825 -0.0129625 -1.80989e-23) (0.55539 -0.00183938 3.02987e-23) (-3.23456e-17 -8.99139e-20 -1.28303e-39) (-1.79769e+307 -1.79769e+307 -1.79769e+307) (0 0 0)       (0.555383 0.00182657 -2.42901e-22) (0.478821 0.0129605 -6.53927e-23) (0.421834 0.0471611 1.79058e-21) (0.418688 0.0615691 -1.15443e-21) (0.41282 0.0816655 -7.67108e-22) (0.398238 0.112368 -9.75994e-22) (0.3593 0.15916 1.9816e-22) (0.210874 0.154712 1.70354e-22) (0.0995284 3.09928e-06 5.95611e-23) (0.210876 -0.154702 -1.06789e-22) (0.359298 -0.159155 -2.22438e-22) (0.398235 -0.112365 9.79021e-22) (0.412818 -0.0816645 -1.35814e-22) (0.418686 -0.0615687 1.15446e-21) (0.421833 -0.0471609 -3.23089e-22) (0.394718 0.0308673 0) (0.390031 0.0320925 0) (0.385022 0.0329285 0) (0.37952 0.0330644 0) (0.373178 0.0322792 0) (0.366233 0.0300374 0) (0.359423 0.0257852 0) (0.353944 0.0190633 0) (0.350479 0.0101874 0) (0.34877 4.83488e-07 0) (0.350479 -0.0101865 0) (0.353943 -0.0190627 0) (0.359423 -0.0257846 0) (0.366233 -0.0300367 0) (0.373178 -0.0322785 0) (0.37952 -0.0330638 0) (0.385022 -0.0329279 0) (0.390031 -0.0320921 0) (0.394718 -0.0308669 0)
4.5           (0.480547 -0.0140024 -1.81086e-23) (0.562854 -0.00872009 3.25607e-23) (-2.59135e-17 -2.64415e-19 -1.22506e-39) (-1.79769e+307 -1.79769e+307 -1.79769e+307) (0 0 0)       (0.562848 0.00870179 -2.5087e-22) (0.480544 0.0140005 -6.54368e-23) (0.422761 0.0474138 1.79755e-21) (0.419686 0.0619602 -1.16754e-21) (0.414579 0.082215 -7.91926e-22) (0.4019 0.113652 -1.05267e-21) (0.366259 0.162467 2.47192e-22) (0.205224 0.160416 1.60337e-22) (0.0705249 2.50197e-06 5.19491e-23) (0.205228 -0.160407 -8.65973e-23) (0.366256 -0.162459 -2.6796e-22) (0.401896 -0.11365 1.05689e-21) (0.414576 -0.0822142 -1.40543e-22) (0.419684 -0.0619598 1.16766e-21) (0.422759 -0.0474137 -3.13123e-22) (0.394721 0.0311256 0) (0.389968 0.0325081 0) (0.384858 0.0335358 0) (0.379239 0.0338686 0) (0.372706 0.0332866 0) (0.365457 0.0312313 0) (0.358254 0.0271122 0) (0.352399 0.0203725 0) (0.348693 0.0110127 0) (0.346849 5.19414e-07 0) (0.348693 -0.0110118 0) (0.352399 -0.0203718 0) (0.358254 -0.0271114 0) (0.365457 -0.0312305 0) (0.372706 -0.0332857 0) (0.379238 -0.0338679 0) (0.384858 -0.0335352 0) (0.389967 -0.0325076 0) (0.39472 -0.0311252 0)
4.8           (0.48196 -0.0155054 -1.75388e-23) (0.572226 -0.0209391 3.25354e-23) (-5.28876e-18 -3.31256e-19 -9.02598e-40) (-1.79769e+307 -1.79769e+307 -1.79769e+307) (0 0 0)       (0.572228 0.0209113 -2.45116e-22) (0.481958 0.0155024 -6.31466e-23) (0.423595 0.0476443 1.8217e-21) (0.420616 0.0623448 -1.19396e-21) (0.416119 0.0826748 -8.26461e-22) (0.405231 0.114442 -1.1475e-21) (0.3725 0.164003 3.02214e-22) (0.2006 0.163214 1.45342e-22) (0.0424327 1.33992e-06 4.17116e-23) (0.200605 -0.163207 -6.28678e-23) (0.372494 -0.163998 -3.17821e-22) (0.405226 -0.11444 1.15391e-21) (0.416117 -0.082674 -1.48764e-22) (0.420614 -0.0623445 1.19394e-21) (0.423594 -0.0476442 -3.08185e-22) (0.394746 0.0313314 0) (0.38996 0.0328545 0) (0.384776 0.0340623 0) (0.37905 0.0345907 0) (0.372351 0.0342176 0) (0.364824 0.0323783 0) (0.357269 0.0284632 0) (0.350972 0.0218187 0) (0.346792 0.0119931 0) (0.344728 5.66664e-07 0) (0.346791 -0.0119921 0) (0.350972 -0.0218179 0) (0.357269 -0.0284622 0) (0.364824 -0.0323773 0) (0.37235 -0.0342166 0) (0.379049 -0.0345899 0) (0.384775 -0.0340616 0) (0.38996 -0.0328539 0) (0.394745 -0.031331 0)
5.1           (0.48241 -0.018247 -1.68889e-23) (0.571882 -0.0471866 2.81952e-23) (1.59697e-17 -1.36269e-20 -4.96425e-40) (-1.79769e+307 -1.79769e+307 -1.79769e+307) (0 0 0)       (0.571905 0.0471602 -2.25251e-22) (0.48241 0.0182432 -6.05532e-23) (0.424403 0.0479771 1.85715e-21) (0.421528 0.062881 -1.22898e-21) (0.417347 0.083218 -8.66288e-22) (0.408033 0.114872 -1.24978e-21) (0.37764 0.164109 3.57791e-22) (0.196848 0.163639 1.27965e-22) (0.0162749 -3.61473e-07 3.05042e-23) (0.196854 -0.163633 -3.88439e-23) (0.377632 -0.164108 -3.67522e-22) (0.408029 -0.114871 1.25911e-21) (0.417344 -0.0832172 -1.59254e-22) (0.421526 -0.0628807 1.22906e-21) (0.424401 -0.047977 -3.07509e-22) (0.394782 0.0315518 0) (0.389977 0.0332009 0) (0.384743 0.0345673 0) (0.378919 0.035281 0) (0.372077 0.0351116 0) (0.364314 0.0335037 0) (0.356476 0.0298505 0) (0.349681 0.0234016 0) (0.344687 0.0131405 0) (0.342258 6.20942e-07 0) (0.344687 -0.0131394 0) (0.349681 -0.0234006 0) (0.356476 -0.0298493 0) (0.364314 -0.0335025 0) (0.372077 -0.0351106 0) (0.378919 -0.0352801 0) (0.384743 -0.0345665 0) (0.389976 -0.0332003 0) (0.394781 -0.0315514 0)
5.4           (0.481206 -0.0215957 -1.67246e-23) (0.548321 -0.0653868 2.37527e-23) (9.62037e-18 5.7186e-20 -2.3367e-40) (-1.79769e+307 -1.79769e+307 -1.79769e+307) (0 0 0)       (0.548353 0.0653849 -2.0845e-22) (0.481209 0.0215926 -6.02979e-23) (0.425137 0.0485601 1.91654e-21) (0.422475 0.0636308 -1.27571e-21) (0.418205 0.0839628 -9.0804e-22) (0.41013 0.115033 -1.34518e-21) (0.381481 0.163067 4.03268e-22) (0.193816 0.162165 1.11386e-22) (-0.00730936 -2.4509e-06 2.06784e-23) (0.19382 -0.162163 -1.84493e-23) (0.381476 -0.163067 -4.07196e-22) (0.410126 -0.115032 1.35707e-21) (0.418202 -0.0839622 -1.70477e-22) (0.422473 -0.0636306 1.27552e-21) (0.425135 -0.04856 -3.14751e-22) (0.394825 0.0318207 0) (0.389999 0.0335874 0) (0.384736 0.035087 0) (0.378828 0.035967 0) (0.371869 0.0359897 0) (0.363925 0.0346176 0) (0.355899 0.0312694 0) (0.348565 0.0250983 0) (0.342332 0.0144461 0) (0.339315 6.85264e-07 0) (0.342332 -0.0144449 0) (0.348565 -0.0250971 0) (0.355899 -0.031268 0) (0.363925 -0.0346163 0) (0.371869 -0.0359886 0) (0.378828 -0.0359661 0) (0.384736 -0.0350863 0) (0.389998 -0.0335868 0) (0.394824 -0.0318203 0)
5.7           (0.479051 -0.0238481 -1.69691e-23) (0.52602 -0.0609094 2.13087e-23) (8.34608e-18 3.16706e-20 -1.65426e-40) (-1.79769e+307 -1.79769e+307 -1.79769e+307) (0 0 0)       (0.526042 0.0609225 -2.0135e-22) (0.479054 0.0238467 -6.15599e-23) (0.425749 0.0494639 1.97332e-21) (0.423477 0.064593 -1.31735e-21) (0.418711 0.0849695 -9.40414e-22) (0.411346 0.115064 -1.41405e-21) (0.384164 0.160892 4.32655e-22) (0.191517 0.159246 9.78218e-23) (-0.0278044 -4.7134e-06 1.32251e-23) (0.191517 -0.15925 -3.94096e-24) (0.384161 -0.160891 -4.32086e-22) (0.411341 -0.115064 1.42811e-21) (0.418708 -0.084969 -1.794e-22) (0.423475 -0.0645926 1.3171e-21) (0.425747 -0.0494639 -3.20762e-22) (0.394876 0.0321409 0) (0.390026 0.0340192 0) (0.384741 0.0356318 0) (0.378772 0.0366526 0) (0.371724 0.0368515 0) (0.363667 0.0357112 0) (0.35557 0.0326944 0) (0.347679 0.0268611 0) (0.339727 0.0158768 0) (0.335808 7.90718e-07 0) (0.339727 -0.0158755 0) (0.34768 -0.0268595 0) (0.35557 -0.0326928 0) (0.363667 -0.0357098 0) (0.371724 -0.0368503 0) (0.378772 -0.0366516 0) (0.384741 -0.0356311 0) (0.390025 -0.0340186 0) (0.394876 -0.0321405 0)
6             (0.477101 -0.0247547 -1.68802e-23) (0.515488 -0.0485547 1.94073e-23) (4.83736e-18 6.51637e-20 -1.50496e-40) (-1.79769e+307 -1.79769e+307 -1.79769e+307) (0 0 0)       (0.515498 0.0485722 -1.93203e-22) (0.477103 0.0247548 -6.13691e-23) (0.426363 0.0507006 2.08534e-21) (0.424503 0.0659528 -1.40002e-21) (0.418959 0.0864246 -1.00377e-21) (0.411481 0.115342 -1.54188e-21) (0.385349 0.158018 4.79357e-22) (0.189832 0.155362 7.89133e-23) (-0.0451879 -6.95201e-06 5.14108e-24) (0.189834 -0.155369 1.2745e-23) (0.385344 -0.158021 -4.71137e-22) (0.411478 -0.115343 1.56008e-21) (0.418956 -0.0864237 -1.97462e-22) (0.424501 -0.0659521 1.40001e-21) (0.426361 -0.0507008 -3.36899e-22) (0.394923 0.0325503 0) (0.390048 0.0345357 0) (0.384726 0.0362493 0) (0.378712 0.0373816 0) (0.371601 0.0377313 0) (0.36349 0.0368052 0) (0.355445 0.0341209 0) (0.346997 0.0286466 0) (0.336827 0.0173888 0) (0.331597 9.63768e-07 0) (0.336826 -0.017387 0) (0.346998 -0.0286446 0) (0.355445 -0.034119 0) (0.36349 -0.0368036 0) (0.3716 -0.03773 0) (0.378711 -0.0373806 0) (0.384725 -0.0362485 0) (0.390047 -0.0345351 0) (0.394922 -0.0325498 0)
6.3           (0.475944 -0.0250585 -1.59233e-23) (0.511989 -0.0364616 1.74214e-23) (1.05606e-18 8.63441e-20 -1.39151e-40) (-1.79769e+307 -1.79769e+307 -1.79769e+307) (0 0 0)       (0.511995 0.0364764 -1.79927e-22) (0.475946 0.0250589 -5.8097e-23) (0.427255 0.0522963 2.27687e-21) (0.425599 0.0680935 -1.54924e-21) (0.419024 0.0888958 -1.12679e-21) (0.410163 0.116555 -1.79553e-21) (0.384148 0.155401 5.66849e-22) (0.188449 0.15094 4.98395e-23) (-0.0599628 -8.86874e-06 -5.27663e-24) (0.188456 -0.150948 3.65324e-23) (0.384145 -0.155406 -5.44825e-22) (0.410161 -0.116554 1.82144e-21) (0.419021 -0.0888938 -2.32823e-22) (0.425596 -0.0680922 1.54939e-21) (0.427252 -0.0522968 -3.669e-22) (0.394936 0.0331638 0) (0.390032 0.0352597 0) (0.384624 0.0370711 0) (0.378546 0.0382838 0) (0.371376 0.0387402 0) (0.363245 0.0379829 0) (0.355353 0.0355924 0) (0.346354 0.0304402 0) (0.333493 0.0189417 0) (0.326458 1.24989e-06 0) (0.333492 -0.0189393 0) (0.346355 -0.0304375 0) (0.355353 -0.03559 0) (0.363245 -0.0379809 0) (0.371376 -0.0387386 0) (0.378546 -0.0382825 0) (0.384623 -0.03707 0) (0.390031 -0.0352589 0) (0.394935 -0.0331632 0)
6.6           (0.475611 -0.025345 -1.46941e-23) (0.512102 -0.0270411 1.67083e-23) (-2.5805e-18 1.19193e-19 -1.61753e-40) (-1.79769e+307 -1.79769e+307 -1.79769e+307) (0 0 0)       (0.512101 0.0270537 -1.69955e-22) (0.475613 0.0253448 -5.40197e-23) (0.428751 0.0542801 2.47768e-21) (0.427104 0.071275 -1.71626e-21) (0.419019 0.09313 -1.27223e-21) (0.406773 0.119625 -2.10198e-21) (0.37998 0.153406 6.65772e-22) (0.187078 0.146224 2.28498e-23) (-0.0724238 -1.03964e-05 -1.37195e-23) (0.187086 -0.146234 5.65562e-23) (0.379981 -0.153411 -6.28817e-22) (0.406772 -0.119623 2.13623e-21) (0.419015 -0.0931261 -2.73724e-22) (0.427099 -0.0712732 1.71596e-21) (0.428746 -0.0542804 -3.93614e-22) (0.394914 0.0340925 0) (0.389958 0.0363132 0) (0.384393 0.0382304 0) (0.378184 0.039496 0) (0.370923 0.0399948 0) (0.362776 0.0393218 0) (0.355108 0.0371369 0) (0.345573 0.0322169 0) (0.329629 0.0204829 0) (0.320241 1.58155e-06 0) (0.329629 -0.0204797 0) (0.345574 -0.0322135 0) (0.355108 -0.0371339 0) (0.362775 -0.0393193 0) (0.370923 -0.0399927 0) (0.378183 -0.0394943 0) (0.384392 -0.038229 0) (0.389957 -0.0363121 0) (0.394913 -0.0340916 0)
6.9           (0.475794 -0.0254936 -1.53465e-23) (0.517131 -0.0184748 1.88078e-23) (-7.41484e-18 1.55894e-19 -3.26014e-40) (-1.79769e+307 -1.79769e+307 -1.79769e+307) (0 0 0)       (0.517118 0.0184826 -1.82472e-22) (0.475794 0.0254931 -5.62011e-23) (0.431077 0.0563535 2.48805e-21) (0.429498 0.0751648 -1.74214e-21) (0.419387 0.0995084 -1.30876e-21) (0.401476 0.125425 -2.17268e-21) (0.372313 0.151369 6.65332e-22) (0.186317 0.140784 3.0866e-23) (-0.0814394 -1.18725e-05 -8.74872e-24) (0.186324 -0.140798 4.25305e-23) (0.372321 -0.151373 -6.27804e-22) (0.401477 -0.125419 2.20808e-21) (0.419382 -0.0995023 -2.80691e-22) (0.429491 -0.0751626 1.74212e-21) (0.431072 -0.0563535 -3.81128e-22) (0.394929 0.035226 0) (0.389916 0.0375862 0) (0.384141 0.0396264 0) (0.37772 0.0409359 0) (0.370327 0.0414145 0) (0.362163 0.0407239 0) (0.354794 0.0386275 0) (0.344777 0.0338416 0) (0.325496 0.0219041 0) (0.313204 1.68358e-06 0) (0.325496 -0.0219006 0) (0.344778 -0.0338378 0) (0.354794 -0.0386243 0) (0.362162 -0.0407212 0) (0.370326 -0.0414122 0) (0.377719 -0.040934 0) (0.38414 -0.0396248 0) (0.389915 -0.037585 0) (0.394927 -0.0352251 0)
7.2           (0.476184 -0.0252443 -1.68439e-23) (0.527372 -0.012448 2.26702e-23) (-1.58791e-17 1.80484e-19 -6.68548e-40) (-1.79769e+307 -1.79769e+307 -1.79769e+307) (0 0 0)       (0.527362 0.0124481 -2.07397e-22) (0.476185 0.0252453 -6.15457e-23) (0.434599 0.0578715 2.38339e-21) (0.433384 0.0792798 -1.6711e-21) (0.421523 0.108495 -1.26474e-21) (0.39536 0.137312 -2.14172e-21) (0.358276 0.151263 6.4787e-22) (0.186362 0.134325 3.68235e-23) (-0.0863338 -1.3368e-05 -3.85845e-24) (0.186369 -0.134342 2.9162e-23) (0.358293 -0.151263 -6.10626e-22) (0.395362 -0.137299 2.17625e-21) (0.421516 -0.108487 -2.71782e-22) (0.433375 -0.0792777 1.67063e-21) (0.434593 -0.0578718 -3.60442e-22) (0.395084 0.0364168 0) (0.390039 0.0389402 0) (0.384043 0.041135 0) (0.377328 0.0425184 0) (0.369735 0.0429526 0) (0.361519 0.0421514 0) (0.354488 0.0400006 0) (0.344068 0.0352281 0) (0.321331 0.023132 0) (0.305602 1.5948e-06 0) (0.321331 -0.0231285 0) (0.344068 -0.0352244 0) (0.354487 -0.0399974 0) (0.361518 -0.0421487 0) (0.369733 -0.0429502 0) (0.377327 -0.0425164 0) (0.384042 -0.0411334 0) (0.390037 -0.038939 0) (0.395082 -0.0364159 0)