# y+ ()       
# Time        	patch         	min           	max           	average       
0             	bodyWall	0.000000e+00	0.000000e+00	0.000000e+00
0.3           	bodyWall	1.307406e-01	6.022226e+00	2.178251e+00
0.6           	bodyWall	1.284893e-01	5.553123e+00	1.798627e+00
0.9           	bodyWall	1.624739e-01	5.022101e+00	1.597720e+00
1.2           	bodyWall	1.590124e-01	4.600174e+00	1.477126e+00
1.5           	bodyWall	7.866163e-02	4.373927e+00	1.395368e+00
1.8           	bodyWall	1.553196e-01	4.119538e+00	1.338993e+00
2.1           	bodyWall	1.541664e-01	3.893823e+00	1.278999e+00
2.4           	bodyWall	1.532931e-01	3.764907e+00	1.249842e+00
2.7           	bodyWall	1.003006e-01	3.637886e+00	1.226959e+00
3             	bodyWall	6.903942e-02	3.507246e+00	1.255792e+00
3.3           	bodyWall	8.907456e-02	3.536626e+00	1.316815e+00
3.6           	bodyWall	5.455815e-02	3.844885e+00	1.481103e+00
3.9           	bodyWall	6.879293e-02	5.010415e+00	1.686081e+00
4.2           	bodyWall	5.884580e-02	5.430754e+00	1.751190e+00
4.5           	bodyWall	1.151607e-01	5.521084e+00	1.750443e+00
4.8           	bodyWall	5.697127e-02	5.366495e+00	1.714090e+00
5.1           	bodyWall	5.159674e-02	4.929894e+00	1.638094e+00
5.4           	bodyWall	8.657571e-02	4.026821e+00	1.506228e+00
5.7           	bodyWall	1.022929e-01	3.606559e+00	1.285697e+00
6             	bodyWall	4.650751e-02	3.434004e+00	1.164055e+00
6.3           	bodyWall	2.661141e-02	3.300831e+00	1.109058e+00
6.6           	bodyWall	3.642116e-02	3.280371e+00	1.086848e+00
6.9           	bodyWall	7.029968e-02	3.232948e+00	1.093762e+00
7.2           	bodyWall	8.922733e-02	3.216992e+00	1.105599e+00
7.5           	bodyWall	1.293111e-01	3.195347e+00	1.107924e+00
7.8           	bodyWall	1.329107e-01	3.156569e+00	1.120669e+00
8.1           	bodyWall	1.118381e-01	3.120370e+00	1.098360e+00
8.4           	bodyWall	1.277141e-01	3.104046e+00	1.079052e+00
8.7           	bodyWall	1.386398e-01	3.102197e+00	1.053379e+00
9             	bodyWall	1.388356e-01	3.111398e+00	1.032174e+00
9.3           	bodyWall	1.241308e-01	3.127737e+00	1.097901e+00
9.6           	bodyWall	1.448374e-01	3.615275e+00	1.261067e+00
9.9           	bodyWall	4.588501e-02	5.026336e+00	1.508063e+00
10.2          	bodyWall	1.454558e-01	4.103263e+00	1.365490e+00
10.5          	bodyWall	1.466873e-01	5.397477e+00	1.741810e+00
10.8          	bodyWall	9.371379e-02	5.514252e+00	1.760231e+00
11.1          	bodyWall	1.356670e-01	5.223401e+00	1.712887e+00
11.4          	bodyWall	1.398298e-01	4.369252e+00	1.565773e+00
11.7          	bodyWall	1.478252e-01	3.512055e+00	1.317911e+00
12            	bodyWall	1.179902e-01	3.314688e+00	1.142489e+00
12.3          	bodyWall	1.045408e-01	3.194732e+00	1.100179e+00
12.6          	bodyWall	1.459954e-01	3.144865e+00	1.115967e+00
12.9          	bodyWall	1.353059e-01	3.107835e+00	1.086887e+00
13.2          	bodyWall	1.452662e-01	3.059057e+00	1.073151e+00
13.5          	bodyWall	1.161387e-01	3.028836e+00	1.069068e+00
13.8          	bodyWall	7.917828e-02	3.035955e+00	1.058455e+00
14.1          	bodyWall	1.449028e-01	3.073115e+00	1.041239e+00
14.4          	bodyWall	1.327988e-01	3.123349e+00	1.017371e+00
14.7          	bodyWall	7.833393e-02	3.177276e+00	1.017143e+00
15            	bodyWall	6.436982e-02	3.220622e+00	1.104861e+00
15.3          	bodyWall	5.836701e-02	3.265151e+00	1.215487e+00
15.6          	bodyWall	1.156885e-01	3.352294e+00	1.229313e+00
15.9          	bodyWall	1.447275e-01	4.659239e+00	1.551358e+00
16.2          	bodyWall	1.449064e-01	5.083044e+00	1.670475e+00
16.5          	bodyWall	1.451216e-01	5.116588e+00	1.681761e+00
16.8          	bodyWall	6.267106e-02	4.879100e+00	1.631609e+00
17.1          	bodyWall	1.323591e-01	4.293402e+00	1.540221e+00
17.4          	bodyWall	1.441129e-01	3.467469e+00	1.380090e+00
17.7          	bodyWall	1.426675e-01	3.377678e+00	1.238311e+00
18            	bodyWall	8.886585e-02	3.257908e+00	1.079916e+00
18.3          	bodyWall	9.942705e-02	3.207997e+00	1.064421e+00
18.6          	bodyWall	1.442934e-01	3.175880e+00	1.053547e+00
18.9          	bodyWall	1.458288e-01	3.147615e+00	1.044365e+00
19.2          	bodyWall	9.884926e-02	3.105894e+00	1.012330e+00
19.5          	bodyWall	6.497928e-02	3.066963e+00	1.005332e+00
19.8          	bodyWall	6.064305e-02	3.047651e+00	9.990134e-01
20.1          	bodyWall	1.205236e-01	3.058879e+00	9.809040e-01
20.4          	bodyWall	5.360734e-02	3.096222e+00	9.731152e-01
20.7          	bodyWall	1.304303e-01	3.155224e+00	9.973364e-01
21            	bodyWall	7.208347e-02	3.218941e+00	1.073041e+00
21.3          	bodyWall	6.557100e-02	3.289891e+00	1.189440e+00
21.6          	bodyWall	1.014462e-01	3.387206e+00	1.248033e+00
21.9          	bodyWall	1.236160e-01	4.831235e+00	1.573410e+00
22.2          	bodyWall	1.344277e-01	5.400229e+00	1.723541e+00
22.5          	bodyWall	1.328681e-01	5.581974e+00	1.751961e+00
22.8          	bodyWall	9.040532e-02	5.465372e+00	1.702815e+00
23.1          	bodyWall	8.674178e-02	4.955421e+00	1.633935e+00
23.4          	bodyWall	1.327802e-01	3.770560e+00	1.465104e+00
23.7          	bodyWall	1.367566e-01	3.378949e+00	1.252378e+00
24            	bodyWall	1.441258e-01	3.171785e+00	1.057119e+00
24.3          	bodyWall	5.729695e-02	3.092595e+00	1.056049e+00
24.6          	bodyWall	1.134665e-01	3.092437e+00	1.069884e+00
24.9          	bodyWall	1.103966e-01	3.103401e+00	1.069794e+00
25.2          	bodyWall	5.792691e-02	3.081804e+00	1.067561e+00
25.5          	bodyWall	5.560352e-02	3.041301e+00	1.067224e+00
25.8          	bodyWall	3.215518e-02	3.005857e+00	1.009107e+00
26.1          	bodyWall	6.319592e-02	2.991504e+00	9.604473e-01
26.4          	bodyWall	3.426506e-02	3.009822e+00	9.573160e-01
26.7          	bodyWall	6.061574e-02	3.065192e+00	9.995060e-01
27            	bodyWall	6.840186e-02	3.132999e+00	1.073415e+00
27.3          	bodyWall	7.595990e-02	3.463002e+00	1.168873e+00
27.6          	bodyWall	7.404042e-02	3.670665e+00	1.245515e+00
27.9          	bodyWall	9.123312e-02	4.946710e+00	1.579082e+00
28.2          	bodyWall	7.973011e-02	5.237516e+00	1.647654e+00
28.5          	bodyWall	1.294712e-01	5.142345e+00	1.639822e+00
28.8          	bodyWall	1.226535e-01	4.778690e+00	1.586806e+00
29.1          	bodyWall	1.182568e-01	3.939566e+00	1.473613e+00
29.4          	bodyWall	1.109023e-01	3.393961e+00	1.249967e+00
29.7          	bodyWall	3.694134e-02	3.244478e+00	1.122380e+00
30            	bodyWall	9.819240e-02	3.128826e+00	9.969957e-01
30.3          	bodyWall	8.865627e-02	3.068355e+00	9.750505e-01
30.6          	bodyWall	1.066233e-01	3.028007e+00	9.815535e-01
30.9          	bodyWall	7.189402e-02	2.997141e+00	9.811852e-01
31.2          	bodyWall	7.848970e-02	2.961985e+00	9.826688e-01
31.5          	bodyWall	7.298541e-02	2.953172e+00	9.853681e-01
31.8          	bodyWall	1.957585e-02	2.960084e+00	9.856364e-01
32.1          	bodyWall	5.843258e-02	2.967521e+00	9.788401e-01
32.4          	bodyWall	1.054923e-01	3.014095e+00	9.746672e-01
32.7          	bodyWall	5.012666e-02	3.069312e+00	9.822237e-01
33            	bodyWall	7.447488e-02	3.116705e+00	1.040088e+00
33.3          	bodyWall	6.563071e-02	3.174706e+00	1.135407e+00
33.6          	bodyWall	3.535789e-02	4.582160e+00	1.239799e+00
33.9          	bodyWall	5.696615e-02	4.775948e+00	1.409495e+00
34.2          	bodyWall	8.912807e-02	5.322031e+00	1.620778e+00
34.5          	bodyWall	5.178844e-02	5.389384e+00	1.675958e+00
34.8          	bodyWall	1.680781e-02	5.134207e+00	1.683699e+00
35.1          	bodyWall	8.300689e-02	4.503037e+00	1.580581e+00
35.4          	bodyWall	5.230670e-02	3.423886e+00	1.357731e+00
35.7          	bodyWall	4.853040e-02	3.297348e+00	1.190835e+00
36            	bodyWall	7.592098e-02	3.164244e+00	1.072043e+00
36.3          	bodyWall	3.618175e-02	3.121413e+00	1.061985e+00
36.6          	bodyWall	9.939701e-02	3.106583e+00	1.042086e+00
36.9          	bodyWall	8.241254e-02	3.078000e+00	1.025422e+00
37.2          	bodyWall	6.118044e-02	3.056240e+00	1.001737e+00
37.5          	bodyWall	8.728487e-02	3.053816e+00	9.832316e-01
37.8          	bodyWall	3.035768e-02	3.063052e+00	9.572555e-01
38.1          	bodyWall	8.220524e-02	3.086270e+00	9.406801e-01
38.4          	bodyWall	4.772135e-02	3.118525e+00	9.557378e-01
38.7          	bodyWall	5.153109e-02	3.146311e+00	1.018313e+00
39            	bodyWall	4.146267e-02	3.172164e+00	1.097235e+00
39.3          	bodyWall	8.449843e-02	3.776766e+00	1.163279e+00
39.6          	bodyWall	7.381508e-02	4.950083e+00	1.415149e+00
39.9          	bodyWall	3.157168e-02	4.934412e+00	1.435948e+00
40.2          	bodyWall	1.207155e-01	5.095339e+00	1.612752e+00
40.5          	bodyWall	9.912961e-02	4.954019e+00	1.598528e+00
40.8          	bodyWall	9.650713e-02	4.579415e+00	1.531067e+00
41.1          	bodyWall	1.019191e-01	3.738709e+00	1.420535e+00
41.4          	bodyWall	7.618299e-02	3.388357e+00	1.221191e+00
41.7          	bodyWall	9.615334e-02	3.246907e+00	1.079153e+00
42            	bodyWall	7.479587e-02	3.154947e+00	9.877621e-01
42.3          	bodyWall	6.156911e-02	3.107995e+00	9.927811e-01
42.6          	bodyWall	8.580775e-02	3.071187e+00	9.908147e-01
42.9          	bodyWall	8.320667e-02	3.022797e+00	9.843588e-01
43.2          	bodyWall	7.028529e-02	2.997293e+00	9.820058e-01
43.5          	bodyWall	6.323448e-02	2.982981e+00	9.786385e-01
43.8          	bodyWall	4.455924e-02	2.995479e+00	9.684282e-01
44.1          	bodyWall	1.947994e-02	3.028286e+00	9.552999e-01
44.4          	bodyWall	3.954120e-02	3.062712e+00	9.331081e-01
44.7          	bodyWall	5.027050e-02	3.091456e+00	9.544710e-01
45            	bodyWall	2.513461e-02	3.123675e+00	1.036202e+00
45.3          	bodyWall	7.891949e-02	3.532442e+00	1.154690e+00
45.6          	bodyWall	5.559749e-02	5.508155e+00	1.365275e+00
45.9          	bodyWall	5.996825e-02	7.134718e+00	1.633679e+00
46.2          	bodyWall	5.796292e-02	5.906318e+00	1.580242e+00
46.5          	bodyWall	5.677712e-02	5.368982e+00	1.661045e+00
46.8          	bodyWall	7.795802e-02	5.080449e+00	1.639684e+00
47.1          	bodyWall	6.843108e-02	4.377861e+00	1.512508e+00
47.4          	bodyWall	2.297673e-02	3.467922e+00	1.279905e+00
47.7          	bodyWall	4.272636e-02	3.344756e+00	1.090959e+00
48            	bodyWall	4.009714e-02	3.206665e+00	1.000396e+00
48.3          	bodyWall	2.717282e-02	3.134396e+00	9.957043e-01
48.6          	bodyWall	2.354317e-02	3.227118e+00	9.870405e-01
48.9          	bodyWall	1.833086e-02	3.167001e+00	9.828663e-01
49.2          	bodyWall	4.729182e-02	3.090933e+00	9.838030e-01
49.5          	bodyWall	7.686595e-02	3.061118e+00	9.765043e-01
49.8          	bodyWall	7.122095e-02	3.076440e+00	9.708106e-01
50.1          	bodyWall	6.430501e-02	3.086128e+00	9.601421e-01
50.4          	bodyWall	6.370069e-02	3.088934e+00	9.543465e-01
50.7          	bodyWall	4.258374e-02	3.105564e+00	1.028517e+00
51            	bodyWall	2.847412e-02	3.156147e+00	1.173848e+00
51.3          	bodyWall	4.719060e-02	4.050509e+00	1.260603e+00
51.6          	bodyWall	3.007944e-02	3.836753e+00	1.220792e+00
51.9          	bodyWall	6.117160e-02	5.013935e+00	1.600653e+00
52.2          	bodyWall	9.726371e-02	5.294217e+00	1.667030e+00
52.5          	bodyWall	1.142261e-01	5.157867e+00	1.635409e+00
52.8          	bodyWall	1.046386e-01	4.621698e+00	1.513348e+00
53.1          	bodyWall	8.708394e-02	3.594166e+00	1.321259e+00
53.4          	bodyWall	5.908577e-02	3.447901e+00	1.164956e+00
53.7          	bodyWall	3.303652e-02	3.280841e+00	1.003311e+00
54            	bodyWall	2.474061e-02	3.186491e+00	9.836844e-01
54.3          	bodyWall	2.715827e-02	3.178942e+00	9.780137e-01
54.6          	bodyWall	5.951452e-02	3.162326e+00	9.707329e-01
54.9          	bodyWall	4.229653e-02	3.083243e+00	9.735661e-01
55.2          	bodyWall	6.980858e-02	3.088294e+00	9.571145e-01
55.5          	bodyWall	6.162450e-02	3.080342e+00	9.421335e-01
55.8          	bodyWall	2.781733e-02	3.069773e+00	9.358827e-01
56.1          	bodyWall	2.834320e-02	3.067206e+00	9.244943e-01
56.4          	bodyWall	3.732897e-02	3.067342e+00	9.426885e-01
56.7          	bodyWall	3.972133e-02	3.083921e+00	1.015475e+00
57            	bodyWall	3.915155e-02	3.125865e+00	1.105736e+00
57.3          	bodyWall	6.136211e-02	3.952662e+00	1.199630e+00
57.6          	bodyWall	5.816614e-02	5.049601e+00	1.295951e+00
57.9          	bodyWall	5.959238e-02	5.379687e+00	1.447806e+00
58.2          	bodyWall	6.293696e-02	5.643982e+00	1.658163e+00
58.5          	bodyWall	4.966092e-02	5.510393e+00	1.662843e+00
58.8          	bodyWall	6.577940e-02	4.968974e+00	1.581517e+00
59.1          	bodyWall	6.886915e-02	3.840162e+00	1.422483e+00
59.4          	bodyWall	3.120341e-02	3.402337e+00	1.186831e+00
59.7          	bodyWall	8.289713e-02	3.236620e+00	1.042260e+00
60            	bodyWall	4.502672e-02	3.150936e+00	1.029698e+00
60.3          	bodyWall	7.229853e-02	3.108861e+00	1.044101e+00
60.6          	bodyWall	7.979568e-02	3.061162e+00	1.054454e+00
60.9          	bodyWall	8.166844e-02	3.031714e+00	1.045693e+00
61.2          	bodyWall	8.513230e-02	3.025285e+00	1.048646e+00
61.5          	bodyWall	4.199634e-02	3.032685e+00	1.058323e+00
61.8          	bodyWall	6.248369e-02	3.056807e+00	1.051764e+00
62.1          	bodyWall	3.476291e-02	3.093056e+00	1.043813e+00
62.4          	bodyWall	3.473215e-02	3.133256e+00	1.064593e+00
62.7          	bodyWall	6.810545e-02	3.362145e+00	1.132849e+00
63            	bodyWall	1.033236e-01	3.428090e+00	1.228130e+00
63.3          	bodyWall	6.570251e-02	4.036110e+00	1.311540e+00
63.6          	bodyWall	4.527129e-02	5.580518e+00	1.522655e+00
63.9          	bodyWall	1.366111e-01	4.988494e+00	1.501397e+00
64.2          	bodyWall	8.935006e-02	5.049244e+00	1.556555e+00
64.5          	bodyWall	5.577361e-02	4.821377e+00	1.568771e+00
64.8          	bodyWall	5.978063e-02	4.213439e+00	1.440305e+00
65.1          	bodyWall	2.001346e-02	3.452397e+00	1.262526e+00
65.4          	bodyWall	4.627668e-02	3.358293e+00	1.140669e+00
65.7          	bodyWall	6.097359e-02	3.235423e+00	1.017252e+00
66            	bodyWall	7.380827e-02	3.181550e+00	1.026818e+00
66.3          	bodyWall	4.562945e-02	3.142482e+00	1.031338e+00
66.6          	bodyWall	5.522151e-02	3.099605e+00	1.034473e+00
66.9          	bodyWall	8.934032e-02	3.061125e+00	1.034457e+00
67.2          	bodyWall	7.395919e-02	3.047730e+00	1.026944e+00
67.5          	bodyWall	9.390019e-02	3.069294e+00	1.018705e+00
67.8          	bodyWall	4.712592e-02	3.105134e+00	9.997669e-01
68.1          	bodyWall	7.679977e-02	3.143313e+00	9.949666e-01
68.4          	bodyWall	9.688434e-02	3.179712e+00	1.007554e+00
68.7          	bodyWall	9.370255e-02	3.208204e+00	1.081977e+00
69            	bodyWall	8.717501e-02	3.235183e+00	1.184618e+00
69.3          	bodyWall	8.665173e-02	4.589302e+00	1.282286e+00
69.6          	bodyWall	7.915122e-02	6.579088e+00	1.582659e+00
69.9          	bodyWall	7.813548e-02	7.108497e+00	1.721902e+00
70.2          	bodyWall	8.247703e-02	7.181930e+00	1.744725e+00
70.5          	bodyWall	2.756711e-02	6.971695e+00	1.705550e+00
70.8          	bodyWall	7.894861e-02	5.579053e+00	1.481158e+00
71.1          	bodyWall	6.682892e-02	3.606983e+00	1.364933e+00
71.4          	bodyWall	5.899638e-02	3.505154e+00	1.189063e+00
71.7          	bodyWall	6.423112e-02	3.349172e+00	1.051645e+00
72            	bodyWall	6.709653e-02	3.262412e+00	1.024461e+00
72.3          	bodyWall	6.964547e-02	3.304169e+00	1.038885e+00
72.6          	bodyWall	8.867054e-02	3.284473e+00	1.043799e+00
72.9          	bodyWall	4.175923e-02	3.190424e+00	1.033115e+00
73.2          	bodyWall	5.305301e-02	3.113868e+00	1.012386e+00
73.5          	bodyWall	8.356734e-02	3.108162e+00	9.932783e-01
73.8          	bodyWall	8.408503e-02	3.112804e+00	9.802418e-01
74.1          	bodyWall	1.096865e-01	3.156242e+00	9.993887e-01
74.4          	bodyWall	9.691444e-02	3.206431e+00	1.066793e+00
74.7          	bodyWall	7.713085e-02	3.245193e+00	1.159811e+00
75            	bodyWall	6.257107e-02	3.731448e+00	1.209890e+00
75.3          	bodyWall	6.251943e-02	4.119231e+00	1.372122e+00
75.6          	bodyWall	7.150146e-02	5.025272e+00	1.614520e+00
75.9          	bodyWall	6.929908e-02	5.284159e+00	1.658918e+00
76.2          	bodyWall	3.275408e-02	5.178118e+00	1.662654e+00
76.5          	bodyWall	7.925700e-02	4.727140e+00	1.584024e+00
76.8          	bodyWall	1.255208e-01	3.850241e+00	1.460229e+00
77.1          	bodyWall	1.371466e-01	3.534871e+00	1.243533e+00
77.4          	bodyWall	1.091505e-01	3.422710e+00	1.151694e+00
77.7          	bodyWall	8.277771e-02	3.335653e+00	1.073126e+00
78            	bodyWall	6.854581e-02	3.286985e+00	1.077835e+00
78.3          	bodyWall	6.875678e-02	3.246598e+00	1.064643e+00
78.6          	bodyWall	6.772077e-02	3.196640e+00	1.064324e+00
78.9          	bodyWall	2.514417e-02	3.152971e+00	1.072436e+00
79.2          	bodyWall	1.316194e-01	3.133040e+00	1.057449e+00
79.5          	bodyWall	1.341140e-01	3.131134e+00	1.050490e+00
79.8          	bodyWall	1.222400e-01	3.147704e+00	1.040341e+00
80.1          	bodyWall	6.236191e-02	3.177318e+00	1.023126e+00
80.4          	bodyWall	9.991182e-02	3.203095e+00	1.037677e+00
80.7          	bodyWall	8.417212e-02	3.222834e+00	1.104807e+00
81            	bodyWall	5.023958e-02	3.469058e+00	1.200794e+00
81.3          	bodyWall	4.917425e-02	4.394748e+00	1.290056e+00
81.6          	bodyWall	2.182633e-02	4.994688e+00	1.434051e+00
81.9          	bodyWall	5.674478e-02	5.384984e+00	1.702695e+00
82.2          	bodyWall	6.869941e-02	5.415801e+00	1.714416e+00
82.5          	bodyWall	5.741721e-02	5.148571e+00	1.690009e+00
82.8          	bodyWall	7.858971e-02	4.426542e+00	1.594090e+00
83.1          	bodyWall	8.554780e-02	3.515555e+00	1.380891e+00
83.4          	bodyWall	1.247025e-01	3.377171e+00	1.189673e+00
83.7          	bodyWall	6.834970e-02	3.262666e+00	1.104342e+00
84            	bodyWall	7.061987e-02	3.218983e+00	1.092623e+00
84.3          	bodyWall	6.292501e-02	3.260479e+00	1.084838e+00
84.6          	bodyWall	5.055231e-02	3.163360e+00	1.063570e+00
84.9          	bodyWall	4.385398e-02	3.135497e+00	1.031957e+00
85.2          	bodyWall	4.329826e-02	3.117055e+00	1.021273e+00
85.5          	bodyWall	4.649548e-02	3.123969e+00	1.011334e+00
85.8          	bodyWall	5.770897e-02	3.161189e+00	1.002639e+00
86.1          	bodyWall	6.922772e-02	3.221921e+00	1.004148e+00
86.4          	bodyWall	1.130798e-01	3.279552e+00	1.083768e+00
86.7          	bodyWall	4.768137e-02	3.353075e+00	1.171306e+00
87            	bodyWall	5.528350e-02	3.942288e+00	1.341839e+00
87.3          	bodyWall	4.779016e-02	4.899122e+00	1.586519e+00
87.6          	bodyWall	4.812771e-02	5.255886e+00	1.673334e+00
87.9          	bodyWall	6.189663e-02	5.316940e+00	1.660002e+00
88.2          	bodyWall	9.163339e-02	5.078318e+00	1.631457e+00
88.5          	bodyWall	7.974635e-02	4.451855e+00	1.546833e+00
88.8          	bodyWall	6.351614e-02	3.536328e+00	1.370348e+00
89.1          	bodyWall	6.962465e-02	3.379798e+00	1.225574e+00
89.4          	bodyWall	4.870752e-02	3.220748e+00	1.059620e+00
89.7          	bodyWall	4.412941e-02	3.162948e+00	1.053636e+00
90            	bodyWall	8.420960e-02	3.120662e+00	1.052845e+00
90.3          	bodyWall	5.719786e-02	3.079734e+00	1.061002e+00
90.6          	bodyWall	6.194893e-02	3.052315e+00	1.056752e+00
90.9          	bodyWall	5.636164e-02	3.015846e+00	1.048618e+00
91.2          	bodyWall	1.013543e-01	3.034757e+00	1.035653e+00
91.5          	bodyWall	7.659212e-02	3.072143e+00	1.023863e+00
91.8          	bodyWall	1.048466e-01	3.115147e+00	1.014955e+00
92.1          	bodyWall	6.419268e-02	3.158875e+00	1.022900e+00
92.4          	bodyWall	4.301539e-02	3.196413e+00	1.059973e+00
92.7          	bodyWall	2.730135e-02	3.280118e+00	1.155779e+00
93            	bodyWall	1.159875e-01	3.871166e+00	1.316410e+00
93.3          	bodyWall	8.153366e-02	4.967423e+00	1.449913e+00
93.6          	bodyWall	1.317645e-01	5.490716e+00	1.693623e+00
93.9          	bodyWall	8.470114e-02	5.670793e+00	1.789415e+00
94.2          	bodyWall	1.273749e-01	5.554877e+00	1.760987e+00
94.5          	bodyWall	1.107243e-01	5.069224e+00	1.714819e+00
94.8          	bodyWall	1.343124e-01	4.134537e+00	1.574287e+00
95.1          	bodyWall	1.451551e-01	3.501928e+00	1.300269e+00
95.4          	bodyWall	8.421942e-02	3.312677e+00	1.124137e+00
95.7          	bodyWall	5.599432e-02	3.368818e+00	1.103614e+00
96            	bodyWall	4.377394e-02	3.364846e+00	1.113453e+00
96.3          	bodyWall	5.413092e-02	3.162330e+00	1.112347e+00
96.6          	bodyWall	9.018407e-02	3.107378e+00	1.109455e+00
96.9          	bodyWall	8.041029e-02	3.042701e+00	1.077956e+00
97.2          	bodyWall	1.046432e-01	3.046798e+00	1.058177e+00
97.5          	bodyWall	5.471811e-02	3.051572e+00	1.056665e+00
97.8          	bodyWall	5.835236e-02	3.120937e+00	1.069949e+00
98.1          	bodyWall	5.278081e-02	3.212882e+00	1.065573e+00
98.4          	bodyWall	4.098809e-02	3.325586e+00	1.147298e+00
98.7          	bodyWall	7.394714e-02	3.463269e+00	1.236078e+00
99            	bodyWall	3.914618e-02	4.823957e+00	1.441844e+00
99.3          	bodyWall	6.873377e-02	5.098995e+00	1.467645e+00
99.6          	bodyWall	6.186697e-02	5.351666e+00	1.652901e+00
99.9          	bodyWall	6.583039e-02	5.293336e+00	1.682000e+00
100.2         	bodyWall	2.802133e-02	4.893898e+00	1.624568e+00
100.5         	bodyWall	7.187377e-02	4.158001e+00	1.503674e+00
100.8         	bodyWall	7.491004e-02	3.516013e+00	1.299621e+00
101.1         	bodyWall	1.185065e-01	3.339797e+00	1.177215e+00
101.4         	bodyWall	6.510865e-02	3.234854e+00	1.068128e+00
101.7         	bodyWall	6.535888e-02	3.181716e+00	1.049427e+00
102           	bodyWall	8.508229e-02	3.111387e+00	1.041805e+00
102.3         	bodyWall	6.145415e-02	3.058964e+00	1.043162e+00
102.6         	bodyWall	6.454044e-02	3.023540e+00	1.038501e+00
102.9         	bodyWall	4.750938e-02	3.007832e+00	1.031663e+00
103.2         	bodyWall	7.461957e-02	3.039328e+00	1.015469e+00
103.5         	bodyWall	1.353386e-01	3.083767e+00	1.005388e+00
103.8         	bodyWall	8.216729e-02	3.136468e+00	9.921416e-01
104.1         	bodyWall	5.599262e-02	3.187050e+00	9.990281e-01
104.4         	bodyWall	6.664449e-02	3.227278e+00	1.067757e+00
104.7         	bodyWall	9.541809e-02	3.261401e+00	1.165044e+00
105           	bodyWall	3.606361e-02	4.171783e+00	1.307555e+00
105.3         	bodyWall	6.578217e-02	4.966551e+00	1.507394e+00
105.6         	bodyWall	6.626968e-02	5.421388e+00	1.498843e+00
105.9         	bodyWall	1.244312e-01	5.526799e+00	1.712949e+00
106.2         	bodyWall	8.644821e-02	5.353359e+00	1.705146e+00
106.5         	bodyWall	1.070853e-01	4.848861e+00	1.613934e+00
106.8         	bodyWall	5.369776e-02	3.737275e+00	1.441797e+00
107.1         	bodyWall	5.961032e-02	3.463414e+00	1.217539e+00
107.4         	bodyWall	8.700066e-02	3.302097e+00	1.076867e+00
107.7         	bodyWall	9.328313e-02	3.319548e+00	1.075810e+00
108           	bodyWall	4.772484e-02	3.299638e+00	1.082394e+00
108.3         	bodyWall	9.764233e-02	3.249223e+00	1.089721e+00
108.6         	bodyWall	4.823031e-02	3.126338e+00	1.065089e+00
108.9         	bodyWall	4.136311e-02	3.094959e+00	1.053052e+00
109.2         	bodyWall	4.210134e-02	3.099551e+00	1.065587e+00
109.5         	bodyWall	6.735550e-02	3.116415e+00	1.038292e+00
109.8         	bodyWall	7.058269e-02	3.135368e+00	9.942232e-01
110.1         	bodyWall	6.531489e-02	3.154037e+00	1.005024e+00
110.4         	bodyWall	3.073180e-02	3.198680e+00	1.094825e+00
110.7         	bodyWall	4.236946e-02	3.702292e+00	1.162330e+00
111           	bodyWall	5.750166e-02	4.070029e+00	1.271017e+00
111.3         	bodyWall	4.570025e-02	5.064535e+00	1.545590e+00
111.6         	bodyWall	4.762408e-02	5.331954e+00	1.600105e+00
111.9         	bodyWall	5.942530e-02	5.271915e+00	1.584051e+00
112.2         	bodyWall	8.086393e-02	4.888788e+00	1.537909e+00
112.5         	bodyWall	2.873567e-02	4.050839e+00	1.420054e+00
112.8         	bodyWall	1.195410e-01	3.519597e+00	1.210703e+00
113.1         	bodyWall	3.846493e-02	3.364988e+00	1.095726e+00
113.4         	bodyWall	3.371469e-02	3.226799e+00	1.002391e+00
113.7         	bodyWall	5.882345e-02	3.174959e+00	1.011666e+00
114           	bodyWall	6.733112e-02	3.141804e+00	1.006246e+00
114.3         	bodyWall	7.943817e-02	3.098834e+00	1.011867e+00
114.6         	bodyWall	6.128375e-02	3.067381e+00	1.002839e+00
114.9         	bodyWall	2.560678e-02	3.066217e+00	9.845955e-01
115.2         	bodyWall	5.396994e-02	3.067641e+00	9.719872e-01
115.5         	bodyWall	6.280164e-02	3.093831e+00	9.467821e-01
115.8         	bodyWall	1.773026e-02	3.119171e+00	9.398547e-01
116.1         	bodyWall	8.017486e-02	3.144960e+00	9.739351e-01
116.4         	bodyWall	7.547833e-02	3.161816e+00	1.066025e+00
116.7         	bodyWall	7.850984e-02	3.418971e+00	1.186096e+00
117           	bodyWall	9.888387e-02	5.250061e+00	1.314501e+00
117.3         	bodyWall	1.097804e-01	7.051141e+00	1.677886e+00
117.6         	bodyWall	1.066897e-01	5.587978e+00	1.605691e+00
117.9         	bodyWall	5.628963e-02	5.632012e+00	1.678500e+00
118.2         	bodyWall	4.382319e-02	5.308282e+00	1.639621e+00
118.5         	bodyWall	2.134151e-02	4.505435e+00	1.517248e+00
118.8         	bodyWall	3.306960e-02	3.574054e+00	1.288110e+00
119.1         	bodyWall	6.397005e-02	3.431756e+00	1.082915e+00
119.4         	bodyWall	3.727719e-02	3.276443e+00	9.941779e-01
119.7         	bodyWall	2.594730e-02	3.198285e+00	1.003497e+00
120           	bodyWall	3.425042e-02	3.129560e+00	1.009983e+00
120.3         	bodyWall	2.554295e-02	3.107639e+00	1.008730e+00
120.6         	bodyWall	1.785495e-02	3.043397e+00	9.934929e-01
120.9         	bodyWall	4.809510e-02	3.057299e+00	9.906319e-01
121.2         	bodyWall	4.126997e-02	3.048294e+00	9.710698e-01
121.5         	bodyWall	4.292427e-02	3.083609e+00	9.493771e-01
121.8         	bodyWall	5.701424e-02	3.122153e+00	9.624758e-01
122.1         	bodyWall	2.591707e-02	3.156971e+00	1.048070e+00
122.4         	bodyWall	3.412067e-02	3.183435e+00	1.136450e+00
122.7         	bodyWall	6.885782e-02	4.007846e+00	1.211146e+00
123           	bodyWall	1.035916e-01	5.754015e+00	1.519230e+00
123.3         	bodyWall	2.914532e-02	4.987908e+00	1.480589e+00
123.6         	bodyWall	1.284110e-01	5.112513e+00	1.650674e+00
123.9         	bodyWall	9.789706e-02	4.968884e+00	1.609166e+00
124.2         	bodyWall	9.514927e-02	4.527082e+00	1.542770e+00
124.5         	bodyWall	4.527557e-02	3.674618e+00	1.404833e+00
124.8         	bodyWall	8.045589e-02	3.479195e+00	1.194886e+00
125.1         	bodyWall	4.686951e-02	3.350761e+00	1.066746e+00
125.4         	bodyWall	3.168619e-02	3.259529e+00	1.026019e+00
125.7         	bodyWall	9.382688e-02	3.207087e+00	1.018193e+00
126           	bodyWall	9.237549e-02	3.183137e+00	1.005413e+00
126.3         	bodyWall	7.986564e-02	3.109581e+00	1.006878e+00
126.6         	bodyWall	7.678091e-02	3.094850e+00	9.915935e-01
126.9         	bodyWall	5.015373e-02	3.111583e+00	9.827666e-01
127.2         	bodyWall	1.377601e-02	3.134402e+00	9.640550e-01
127.5         	bodyWall	2.221968e-02	3.145575e+00	9.521851e-01
127.8         	bodyWall	2.272704e-02	3.152464e+00	9.649768e-01
128.1         	bodyWall	5.308633e-02	3.153332e+00	1.014207e+00
128.4         	bodyWall	7.431142e-02	3.150521e+00	1.100478e+00
128.7         	bodyWall	5.749686e-02	4.048418e+00	1.222627e+00
129           	bodyWall	8.589689e-02	4.390735e+00	1.414414e+00
129.3         	bodyWall	1.123049e-01	5.270010e+00	1.505344e+00
129.6         	bodyWall	1.147168e-01	5.510151e+00	1.708848e+00
129.9         	bodyWall	9.379375e-02	5.430180e+00	1.684911e+00
130.2         	bodyWall	7.570566e-02	5.021718e+00	1.601453e+00
130.5         	bodyWall	5.375307e-02	4.091195e+00	1.447909e+00
130.8         	bodyWall	6.955202e-02	3.509476e+00	1.173378e+00
131.1         	bodyWall	5.371455e-02	3.336577e+00	1.017601e+00
131.4         	bodyWall	8.383438e-02	3.230641e+00	9.753462e-01
131.7         	bodyWall	6.440876e-02	3.162761e+00	9.921757e-01
132           	bodyWall	5.515061e-02	3.178764e+00	9.966824e-01
132.3         	bodyWall	3.090252e-02	3.067957e+00	1.003221e+00
132.6         	bodyWall	4.489966e-02	3.032322e+00	9.893859e-01
132.9         	bodyWall	5.772258e-02	3.063859e+00	9.826005e-01
133.2         	bodyWall	7.264651e-02	3.107963e+00	9.780403e-01
133.5         	bodyWall	6.127416e-02	3.137410e+00	9.665737e-01
133.8         	bodyWall	5.041052e-02	3.144605e+00	9.965889e-01
134.1         	bodyWall	9.549742e-02	3.162030e+00	1.080200e+00
134.4         	bodyWall	9.454923e-02	3.312547e+00	1.189889e+00
134.7         	bodyWall	4.723137e-02	4.450268e+00	1.259635e+00
135           	bodyWall	7.286034e-02	4.744881e+00	1.419550e+00
135.3         	bodyWall	4.740401e-02	5.158458e+00	1.609202e+00
135.6         	bodyWall	1.593335e-02	5.183880e+00	1.618848e+00
135.9         	bodyWall	1.446531e-02	4.930150e+00	1.591251e+00
136.2         	bodyWall	5.004120e-02	4.288354e+00	1.508091e+00
136.5         	bodyWall	7.747317e-02	3.525188e+00	1.349102e+00
136.8         	bodyWall	1.013674e-01	3.396472e+00	1.186255e+00
137.1         	bodyWall	7.485388e-02	3.281143e+00	1.034617e+00
137.4         	bodyWall	6.236615e-02	3.206712e+00	1.022974e+00
137.7         	bodyWall	1.113268e-01	3.191034e+00	1.015447e+00
138           	bodyWall	2.947076e-02	3.144844e+00	1.007602e+00
138.3         	bodyWall	6.459815e-02	3.075133e+00	1.009503e+00
138.6         	bodyWall	3.744952e-02	3.064494e+00	9.928818e-01
138.9         	bodyWall	5.934215e-02	3.056165e+00	9.764076e-01
139.2         	bodyWall	7.760651e-02	3.078877e+00	9.596619e-01
139.5         	bodyWall	7.283997e-02	3.117203e+00	9.487225e-01
139.8         	bodyWall	5.514792e-02	3.152787e+00	9.580043e-01
140.1         	bodyWall	6.014402e-02	3.179920e+00	1.040921e+00
140.4         	bodyWall	8.449301e-02	3.197197e+00	1.147563e+00
140.7         	bodyWall	5.601567e-02	4.133798e+00	1.189899e+00
141           	bodyWall	2.681572e-02	4.984509e+00	1.381928e+00
141.3         	bodyWall	9.811730e-02	5.523021e+00	1.659294e+00
141.6         	bodyWall	7.878209e-02	5.637702e+00	1.671492e+00
141.9         	bodyWall	5.216371e-02	5.421260e+00	1.654602e+00