# Probe 0 (0.5 -1.5 0.05)
# Probe 1 (0.5 -1 0.05)
# Probe 2 (0.5 -0.5 0.05)
# Probe 3 (0.5 0 0.05)
# Probe 4 (0.5 0.5 0.05)
# Probe 5 (0.5 1 0.05)
# Probe 6 (0.5 1.5 0.05)
# Probe 7 (1.5 -1.5 0.05)
# Probe 8 (1.5 -1 0.05)
# Probe 9 (1.5 -0.5 0.05)
# Probe 10 (1.5 0 0.05)
# Probe 11 (1.5 0.5 0.05)
# Probe 12 (1.5 1 0.05)
# Probe 13 (1.5 1.5 0.05)
# Probe 14 (3 -1.5 0.05)
# Probe 15 (3 -1.25 0.05)
# Probe 16 (3 -1 0.05)
# Probe 17 (3 -0.75 0.05)
# Probe 18 (3 -0.5 0.05)
# Probe 19 (3 -0.25 0.05)
# Probe 20 (3 0 0.05)
# Probe 21 (3 0.25 0.05)
# Probe 22 (3 0.5 0.05)
# Probe 23 (3 0.75 0.05)
# Probe 24 (3 1 0.05)
# Probe 25 (3 1.25 0.05)
# Probe 26 (3 1.5 0.05)
# Probe 27 (4 -1.5 0.05)
# Probe 28 (4 -1.333 0.05)
# Probe 29 (4 -1.167 0.05)
# Probe 30 (4 -1 0.05)
# Probe 31 (4 -0.833 0.05)
# Probe 32 (4 -0.667 0.05)
# Probe 33 (4 -0.5 0.05)
# Probe 34 (4 -0.333 0.05)
# Probe 35 (4 -0.167 0.05)
# Probe 36 (4 0 0.05)
# Probe 37 (4 0.167 0.05)
# Probe 38 (4 0.333 0.05)
# Probe 39 (4 0.5 0.05)
# Probe 40 (4 0.667 0.05)
# Probe 41 (4 0.833 0.05)
# Probe 42 (4 1 0.05)
# Probe 43 (4 1.167 0.05)
# Probe 44 (4 1.333 0.05)
# Probe 45 (4 1.5 0.05)
# Time        0             1             2             3             4             5             6             7             8             9             10            11            12            13            14            15            16            17            18            19            20            21            22            23            24            25            26            27            28            29            30            31            32            33            34            35            36            37            38            39            40            41            42            43            44            45           
0             0             0             0             -1.79769e+307 0             0             0             0             0             0             -1.79769e+307 0             0             0             0             0             0             0             0             0             0             0             0             0             0             0             0             0             0             0             0             0             0             0             0             0             0             0             0             0             0             0             0             0             0             0            
0.3           -0.0158292    -0.0298999    -0.0469197    -1.79769e+307 -0.0469195    -0.0298975    -0.0158278    -0.0157747    -0.0251885    -0.0339557    -1.79769e+307 -0.0339547    -0.0251877    -0.0157739    -0.000535783  0.000196014   0.00131879    0.00342021    0.00623791    0.00861745    0.00957558    0.00861751    0.00623805    0.00342028    0.00131906    0.000196284   -0.000535493  3.45415e-05   0.00045654    0.000843159   0.0013039     0.0017612     0.00220041    0.00259866    0.00286731    0.00307735    0.0032045     0.00307737    0.00286735    0.00259872    0.00220049    0.00176132    0.00130402    0.000843305   0.000456722   3.47496e-05  
0.6           -0.0169285    -0.0315746    -0.0489106    -1.79769e+307 -0.0489064    -0.0315722    -0.0169272    -0.017022     -0.0262884    -0.0341669    -1.79769e+307 -0.0341662    -0.0262877    -0.0170213    -0.00156201   -0.000683816  0.000671403   0.00311411    0.00633505    0.00896614    0.00997432    0.00896621    0.00633517    0.00311422    0.000671565   -0.000683647  -0.00156184   0.000433258   0.000881774   0.00123301    0.00171848    0.00222759    0.0026541     0.00306704    0.0033529     0.00357725    0.0037156     0.00357728    0.00335295    0.00306712    0.0026542     0.00222771    0.00171861    0.00123314    0.000881917   0.000433403  
0.9           -0.0173768    -0.0323812    -0.0484046    -1.79769e+307 -0.0484       -0.0323774    -0.0173745    -0.0175178    -0.0263417    -0.0331912    -1.79769e+307 -0.0331893    -0.0263399    -0.0175161    -0.0024555    -0.00146772   -2.80694e-05  0.00266704    0.00646048    0.00962525    0.0108208     0.00962539    0.00646074    0.00266741    -2.75937e-05  -0.00146714   -0.00245485   0.000475165   0.000969422   0.00133961    0.0018785     0.00245677    0.00291124    0.00335976    0.00367591    0.00392153    0.00407164    0.00392159    0.00367603    0.00335994    0.00291146    0.00245703    0.00187879    0.00133994    0.000969784   0.000475556  
1.2           -0.0179461    -0.0333429    -0.0471077    -1.79769e+307 -0.0471195    -0.033347     -0.0179483    -0.018061     -0.0265501    -0.0326608    -1.79769e+307 -0.0326632    -0.0265523    -0.0180628    -0.00315458   -0.00205132   -0.000546604  0.00244593    0.00697987    0.0109302     0.0124308     0.0109301     0.00697958    0.00244552    -0.000547137  -0.00205194   -0.00315527   0.000477172   0.00102462    0.0014651     0.00208867    0.00276641    0.00330762    0.00384129    0.00421289    0.00450468    0.00468575    0.00450464    0.0042128     0.00384115    0.00330743    0.00276618    0.00208839    0.00146478    0.00102427    0.000476778  
1.5           -0.0185716    -0.0343917    -0.0441597    -1.79769e+307 -0.0441633    -0.0343909    -0.0185711    -0.0186063    -0.0267724    -0.0322604    -1.79769e+307 -0.0322601    -0.0267721    -0.018606     -0.00374846   -0.00268938   -0.00106822   0.00224245    0.00769522    0.0127328     0.0146714     0.0127328     0.00769528    0.00224254    -0.00106812   -0.00268927   -0.00374835   0.000542596   0.00114371    0.00166579    0.00237944    0.00316545    0.00382017    0.00446514    0.00490909    0.00526492    0.00549455    0.00526494    0.00490911    0.00446518    0.00382022    0.00316551    0.0023795     0.00166586    0.00114379    0.00054268   
1.8           -0.0192868    -0.0357237    -0.0382996    -1.79769e+307 -0.0383047    -0.0357225    -0.019286     -0.0191894    -0.0270821    -0.0320882    -1.79769e+307 -0.032087     -0.0270812    -0.0191886    -0.00427023   -0.00332326   -0.00158528   0.00197788    0.00842361    0.0148353     0.0173387     0.0148354     0.0084239     0.00197825    -0.00158489   -0.00332282   -0.00426972   0.000649883   0.00130729    0.0019158     0.00272237    0.00361871    0.00440334    0.00517684    0.0057042     0.00613736    0.00642866    0.0061374     0.00570428    0.00517695    0.00440348    0.00361888    0.00272257    0.00191602    0.00130754    0.000650152  
2.1           -0.0200354    -0.0372691    -0.0290954    -1.79769e+307 -0.0291019    -0.0372681    -0.0200351    -0.0197124    -0.0273178    -0.0318929    -1.79769e+307 -0.0318929    -0.0273178    -0.0197123    -0.00476907   -0.00389169   -0.00215487   0.00157809    0.00901506    0.0170736     0.0202567     0.0170737     0.00901518    0.00157823    -0.00215473   -0.00389156   -0.00476896   0.00078254    0.00149686    0.00218898    0.00308995    0.00409785    0.0050216     0.00593589    0.00655467    0.00707555    0.00744098    0.00707556    0.00655469    0.00593592    0.00502164    0.0040979     0.00309       0.00218904    0.00149691    0.0007826    
2.4           -0.020805     -0.0391009    -0.0197033    -1.79769e+307 -0.0197123    -0.0391008    -0.0208054    -0.0202179    -0.0275508    -0.0317494    -1.79769e+307 -0.0317491    -0.0275517    -0.0202185    -0.00527397   -0.0044468    -0.00278278   0.000996232   0.00936549    0.0193338     0.0233002     0.0193338     0.0093655     0.000996191   -0.00278289   -0.00444694   -0.00527415   0.000915589   0.00169075    0.00246029    0.00345797    0.00457976    0.00564747    0.00671224    0.0074285     0.00804595    0.00849961    0.00804593    0.00742848    0.0067122     0.00564743    0.0045797     0.0034579     0.00246021    0.00169066    0.000915487  
2.7           -0.0216366    -0.0413452    -0.0130502    -1.79769e+307 -0.013045     -0.0413416    -0.0216353    -0.020681     -0.0277169    -0.031502     -1.79769e+307 -0.0315014    -0.0277162    -0.0206802    -0.00578938   -0.00502563   -0.00347284   0.000220255   0.00931553    0.0213199     0.0262982     0.02132       0.00931582    0.000220574   -0.0034725    -0.00502528   -0.00578902   0.00101899    0.00185758    0.00269722    0.00379202    0.00503066    0.00623902    0.00745937    0.00827826    0.00900055    0.00955631    0.00900058    0.00827832    0.00745946    0.00623914    0.00503081    0.00379218    0.0026974     0.00185778    0.00101921   
3             -0.0224851    -0.0438691    -0.01438      -1.79769e+307 -0.0144154    -0.0438742    -0.022488     -0.0210772    -0.0277953    -0.031134     -1.79769e+307 -0.0311423    -0.0278017    -0.0210813    -0.00626217   -0.00557306   -0.00415331   -0.000634238  0.00888134    0.0228899     0.028951      0.0228896     0.00888073    -0.000635225  -0.00415461   -0.00557453   -0.00626372   0.00112212    0.00202793    0.00293598    0.00412921    0.00548985    0.00683364    0.00821153    0.00913792    0.00997196    0.0106378     0.00997184    0.00913769    0.00821119    0.0068332     0.00548932    0.00412858    0.00293527    0.00202716    0.00112129   
3.3           -0.0232601    -0.0465996    -0.0305991    -1.79769e+307 -0.030579     -0.0465987    -0.0232612    -0.0214022    -0.0278016    -0.0307004    -1.79769e+307 -0.0307069    -0.0278052    -0.0214044    -0.00672451   -0.00613948   -0.00489708   -0.00170236   0.00799627    0.0239971     0.0311283     0.0239972     0.00799639    -0.00170236   -0.00489728   -0.00613991   -0.00672517   0.00117304    0.00214005    0.00310998    0.00439513    0.00587701    0.00734632    0.00887961    0.00992457    0.0108785     0.0116625     0.0108785     0.0099245     0.00887951    0.00734619    0.00587684    0.00439491    0.00310972    0.00213974    0.00117267   
3.6           -0.0240266    -0.0495351    -0.0638623    -1.79769e+307 -0.0638259    -0.0495334    -0.0240268    -0.0216915    -0.027762     -0.0302622    -1.79769e+307 -0.0302642    -0.027763     -0.021692     -0.00715696   -0.00668466   -0.00563632   -0.0028852    0.00670993    0.0243871     0.032761      0.0243874     0.00671026    -0.00288507   -0.00563635   -0.00668474   -0.00715707   0.00120925    0.00223516    0.00326924    0.00464607    0.00625115    0.0078491     0.00954512    0.0107183     0.0118034     0.0127262     0.0118034     0.0107183     0.00954512    0.0078491     0.00625114    0.00464605    0.00326921    0.00223512    0.0012092    
3.9           -0.0248825    -0.0529203    -0.113871     -1.79769e+307 -0.113814     -0.0529165    -0.0248815    -0.0219844    -0.0277066    -0.0298042    -1.79769e+307 -0.0298044    -0.0277064    -0.0219839    -0.00757255   -0.00721793   -0.0063862    -0.00416231   0.0049963     0.0237695     0.0332803     0.0237701     0.00499704    -0.0041618    -0.00638581   -0.00721757   -0.00757222   0.00122873    0.00230726    0.0034084     0.00487183    0.00659052    0.00831994    0.0101812     0.0114838     0.0127014     0.013765      0.0127014     0.0114839     0.0101813     0.00832009    0.00659068    0.00487201    0.00340859    0.00230746    0.00122893   
4.2           -0.025784     -0.0565494    -0.168945     -1.79769e+307 -0.168891     -0.0565466    -0.0257836    -0.0222498    -0.0275929    -0.0292352    -1.79769e+307 -0.029237     -0.0275939    -0.0222502    -0.00795972   -0.00773299   -0.00715608   -0.00548258   0.00302469    0.0224639     0.0328702     0.0224645     0.00302522    -0.00548243   -0.00715604   -0.00773299   -0.00795976   0.00122377    0.00234349    0.00351158    0.00505017    0.00686652    0.00872405    0.0107486     0.0121906     0.0135426     0.0147312     0.0135426     0.0121906     0.0107486     0.00872407    0.00686654    0.00505019    0.0035116     0.0023435     0.00122377   
4.5           -0.0266708    -0.0601275    -0.214819     -1.79769e+307 -0.214782     -0.0601245    -0.0266703    -0.022513     -0.0274728    -0.028635     -1.79769e+307 -0.0286371    -0.0274739    -0.0225135    -0.00831145   -0.00822449   -0.00791415   -0.00676331   0.00103293    0.0206531     0.0316639     0.0206535     0.00103327    -0.00676322   -0.00791406   -0.00822446   -0.00831148   0.00120628    0.00235728    0.00358541    0.00518833    0.00708784    0.00907102    0.0112579     0.0128431     0.0143351     0.015643      0.0143351     0.0128431     0.0112579     0.00907104    0.00708786    0.00518835    0.00358543    0.00235729    0.00120628   
4.8           -0.0274701    -0.0633502    -0.242666     -1.79769e+307 -0.242651     -0.0633487    -0.0274709    -0.0227393    -0.0273111    -0.0279511    -1.79769e+307 -0.0279546    -0.0273137    -0.0227414    -0.00860175   -0.00865483   -0.00859539   -0.00792879   -0.000807937  0.0186858     0.0300427     0.0186861     -0.000807738  -0.00792853   -0.0085952    -0.0086548    -0.00860181   0.00118696    0.00236323    0.00363889    0.00529272    0.00725751    0.00935505    0.0116897     0.0134171     0.0150477     0.0164735     0.0150477     0.0134171     0.0116897     0.00935511    0.0072576     0.00529282    0.00363899    0.00236333    0.00118705   
5.1           -0.0281683    -0.0662461    -0.253254     -1.79769e+307 -0.253233     -0.0662417    -0.0281681    -0.0229526    -0.0271588    -0.0272266    -1.79769e+307 -0.0272355    -0.0271648    -0.0229558    -0.00887102   -0.00906392   -0.00924169   -0.0090144    -0.00252918   0.0165864     0.0280991     0.0165866     -0.00252908   -0.00901452   -0.00924233   -0.00906493   -0.0088722    0.00116655    0.00236022    0.00366917    0.00536398    0.00738344    0.00958302    0.0120526     0.0139264     0.0156862     0.0172171     0.0156861     0.0139263     0.0120525     0.00958283    0.0073832     0.00536366    0.00366877    0.00235975    0.00116602   
5.4           -0.028879     -0.0688729    -0.24169      -1.79769e+307 -0.24171      -0.0688739    -0.0288803    -0.0231905    -0.0269997    -0.0263896    -1.79769e+307 -0.0263929    -0.0270021    -0.0231921    -0.00911835   -0.00943746   -0.00981632   -0.00995213   -0.00407295   0.0144827     0.0259897     0.0144831     -0.0040719    -0.0099517    -0.00981643   -0.00943782   -0.00911883   0.00115742    0.00236269    0.00369423    0.00542359    0.00749016    0.00977796    0.0123682     0.0143864     0.016272      0.0178882     0.016272      0.0143865     0.0123683     0.00977807    0.00749022    0.0054236     0.00369418    0.00236258    0.00115726   
5.7           -0.0296503    -0.0713301    -0.222748     -1.79769e+307 -0.222774     -0.07133      -0.0296507    -0.0234549    -0.0268299    -0.0254242    -1.79769e+307 -0.0254262    -0.0268309    -0.0234555    -0.00936017   -0.00977918   -0.0103157    -0.0107152    -0.00532607   0.0126272     0.0238929     0.0126275     -0.00532538   -0.010715     -0.0103157    -0.00977929   -0.00936032   0.00114527    0.0023599     0.00370673    0.00546513    0.00757408    0.00993594    0.0126303     0.0147875     0.0167969     0.0184712     0.016797      0.0147876     0.0126306     0.00993619    0.00757428    0.0054653     0.00370686    0.00235998    0.00114532   
6             -0.030459     -0.0735182    -0.198039     -1.79769e+307 -0.198037     -0.0735214    -0.0304602    -0.023725     -0.0266481    -0.0243021    -1.79769e+307 -0.0243037    -0.026649     -0.0237257    -0.00958908   -0.0100868    -0.0107472    -0.0113392    -0.00636826   0.0109011     0.0218159     0.0109008     -0.00636873   -0.0113395    -0.0107475    -0.010087     -0.00958935   0.00113272    0.00235612    0.0037137     0.00549824    0.00764611    0.0100712     0.012855      0.015141      0.0172712     0.0189922     0.0172712     0.0151411     0.0128552     0.0100714     0.00764622    0.00549831    0.00371373    0.00235611    0.00113268   
6.3           -0.0312862    -0.0754953    -0.182864     -1.79769e+307 -0.182888     -0.075494     -0.0312856    -0.0239641    -0.0264181    -0.0229528    -1.79769e+307 -0.0229558    -0.0264194    -0.0239644    -0.00979057   -0.0103515    -0.0111148    -0.0118633    -0.00720338   0.00938831    0.0198944     0.00938737    -0.00720405   -0.0118636    -0.0111151    -0.0103517    -0.00979074   0.00112696    0.00235883    0.00372403    0.00553134    0.00771429    0.0101923     0.0130521     0.0154554     0.0176986     0.0194521     0.0176987     0.0154555     0.0130523     0.0101925     0.00771439    0.00553142    0.00372408    0.00235886    0.00112698   
6.6           -0.03203      -0.0771215    -0.173716     -1.79769e+307 -0.173667     -0.0771065    -0.0320221    -0.0242148    -0.0262223    -0.021526     -1.79769e+307 -0.0215089    -0.0262064    -0.0242031    -0.00998027   -0.0105935    -0.0114408    -0.0123163    -0.00790871   0.0080497     0.0181311     0.00804971    -0.00790674   -0.0123132    -0.0114369    -0.0105891    -0.00997567   0.00111248    0.0023511     0.0037204     0.00554585    0.00775981    0.0102797     0.0132023     0.0157123     0.0180572     0.0198272     0.0180577     0.0157131     0.0132035     0.0102812     0.00776156    0.00554786    0.00372263    0.00235349    0.00111503   
6.9           -0.0326621    -0.0782942    -0.166492     -1.79769e+307 -0.16649      -0.0782931    -0.0326615    -0.0244667    -0.0260513    -0.0200172    -1.79769e+307 -0.0200193    -0.0260519    -0.0244666    -0.0101481    -0.0108052    -0.0117211    -0.0126948    -0.00848237   0.00687972    0.0165432     0.00687874    -0.00848247   -0.0126948    -0.0117212    -0.0108052    -0.0101481    0.00109063    0.00233415    0.00370483    0.00554406    0.00778494    0.0103358     0.0133082     0.0159144     0.0183465     0.0201177     0.0183466     0.0159146     0.0133084     0.0103359     0.00778504    0.00554414    0.0037049     0.00233421    0.00109068   
7.2           -0.0332009    -0.0789187    -0.164899     -1.79769e+307 -0.164891     -0.0789177    -0.0332006    -0.0247165    -0.0259018    -0.0184265    -1.79769e+307 -0.0184275    -0.0259018    -0.0247163    -0.0102855    -0.0109774    -0.01195      -0.0129946    -0.00892049   0.00584183    0.0150383     0.00584118    -0.00892062   -0.0129946    -0.01195      -0.0109773    -0.0102854    0.00107243    0.00232097    0.00369332    0.00554494    0.00781198    0.010386      0.0133992     0.0160949     0.018599      0.0203606     0.0185991     0.0160951     0.0133993     0.0103862     0.0078121     0.00554504    0.00369341    0.00232106    0.00107251   
7.5           -0.0336687    -0.0790816    -0.162407     -1.79769e+307 -0.162403     -0.0790805    -0.0336685    -0.0249991    -0.0258261    -0.0168425    -1.79769e+307 -0.0168447    -0.0258267    -0.0249992    -0.0104141    -0.0111279    -0.0121413    -0.013228     -0.00922948   0.00503724    0.01384       0.00503671    -0.00922974   -0.0132281    -0.0121414    -0.011128     -0.0104142    0.00103491    0.00228476    0.00365535    0.00551431    0.00780374    0.010387      0.0134241     0.0162078     0.0187613     0.0204782     0.0187614     0.016208      0.0134241     0.010387      0.00780377    0.00551433    0.00365535    0.00228476    0.0010349    
7.8           -0.0341333    -0.0788923    -0.159163     -1.79769e+307 -0.159167     -0.0788929    -0.0341336    -0.0252839    -0.025747     -0.0151431    -1.79769e+307 -0.0151451    -0.0257476    -0.0252842    -0.0105198    -0.0112382    -0.0122747    -0.0133795    -0.00941531   0.00444052    0.0128211     0.00444       -0.00941559   -0.0133797    -0.0122748    -0.0112384    -0.01052      0.00100793    0.00225904    0.00362811    0.00549441    0.00780737    0.0103931     0.013447      0.0163169     0.0189053     0.0205708     0.0189053     0.0163169     0.013447      0.0103931     0.00780735    0.00549437    0.00362806    0.00225898    0.00100786   
8.1           -0.034637     -0.0787371    -0.160148     -1.79769e+307 -0.160154     -0.0787392    -0.0346372    -0.0256257    -0.0257225    -0.013339     -1.79769e+307 -0.0133394    -0.0257221    -0.0256254    -0.0106323    -0.0113402    -0.0123753    -0.0134726    -0.00951094   0.00400728    0.0119825     0.00400685    -0.0095111    -0.0134726    -0.0123752    -0.0113402    -0.0106323    0.000986723   0.00223867    0.0036066     0.00547962    0.00781438    0.0103981     0.0134622     0.0164103     0.0190185     0.0206299     0.0190185     0.0164103     0.0134621     0.0103981     0.0078144     0.00547963    0.00360662    0.0022387     0.000986753  
8.4           -0.0352192    -0.0790336    -0.16178      -1.79769e+307 -0.16183      -0.0790287    -0.0352151    -0.0260375    -0.0257644    -0.0113811    -1.79769e+307 -0.0113851    -0.0257655    -0.0260365    -0.0107299    -0.0114181    -0.0124352    -0.0135056    -0.00952305   0.00373619    0.0113292     0.00373575    -0.00952326   -0.0135056    -0.0124352    -0.011418     -0.0107298    0.000969424   0.00222484    0.00359452    0.00547491    0.00782968    0.01041       0.0134798     0.0164962     0.0191125     0.0206695     0.0191125     0.0164962     0.0134798     0.01041       0.00782974    0.00547499    0.00359463    0.00222498    0.000969586  
8.7           -0.035776     -0.0794019    -0.163483     -1.79769e+307 -0.163399     -0.0793846    -0.0357749    -0.0264732    -0.0258836    -0.00929352   -1.79769e+307 -0.00933368   -0.0259126    -0.0264892    -0.010768     -0.0114383    -0.0124371    -0.013474     -0.00945956   0.00361982    0.010848      0.00361745    -0.00946342   -0.0134791    -0.0124433    -0.0114451    -0.0107751    0.000954744   0.00221942    0.00359512    0.00548483    0.00785833    0.0104353     0.0135083     0.0165804     0.019197      0.0207024     0.0191965     0.0165793     0.0135066     0.0104333     0.0078559     0.005482      0.00359198    0.00221608    0.000951182  
9             -0.0363203    -0.0796964    -0.164775     -1.79769e+307 -0.164779     -0.0796969    -0.0363202    -0.0269824    -0.0261783    -0.0071992    -1.79769e+307 -0.00720106   -0.0261784    -0.0269822    -0.0107956    -0.011433     -0.0124078    -0.0134065    -0.00935009   0.00361493    0.0105134     0.00361442    -0.00935038   -0.0134067    -0.0124079    -0.011433     -0.0107956    0.000937036   0.00221549    0.00359932    0.00550022    0.00789256    0.0104677     0.0135432     0.0166594     0.0192698     0.0207287     0.0192697     0.0166593     0.0135431     0.0104676     0.00789249    0.00550017    0.00359928    0.00221546    0.000937014  
9.3           -0.0368053    -0.0799284    -0.163954     -1.79769e+307 -0.163951     -0.0799274    -0.0368046    -0.0274751    -0.0265371    -0.00505633   -1.79769e+307 -0.00505987   -0.0265371    -0.0274745    -0.0107817    -0.0113888    -0.0123385    -0.0133072    -0.00920896   0.0036995     0.0102915     0.00369895    -0.0092093    -0.0133074    -0.0123385    -0.0113888    -0.0107817    0.00091432    0.00221053    0.00360539    0.00551797    0.00792817    0.0105032     0.0135809     0.0167296     0.0193297     0.0207463     0.0193297     0.0167295     0.0135808     0.0105031     0.00792811    0.00551793    0.00360537    0.00221053    0.000914338  
9.6           -0.0372295    -0.0801801    -0.161456     -1.79769e+307 -0.161435     -0.0801792    -0.037229     -0.0279645    -0.0269677    -0.0029595    -1.79769e+307 -0.00296334   -0.0269667    -0.0279634    -0.0107896    -0.0113648    -0.0122787    -0.0132272    -0.00908849   0.0038368     0.0101316     0.00383623    -0.00908881   -0.0132272    -0.0122787    -0.0113647    -0.0107895    0.000887566   0.00219787    0.00360311    0.00552501    0.00794924    0.0105261     0.0136071     0.016777      0.0193651     0.0207466     0.0193651     0.0167769     0.013607      0.0105261     0.0079492     0.005525      0.00360314    0.00219791    0.000887639  
9.9           -0.0375994    -0.0804556    -0.159457     -1.79769e+307 -0.159452     -0.0804539    -0.0375984    -0.028463     -0.0274742    -0.000939698  -1.79769e+307 -0.000944354  -0.0274737    -0.0284622    -0.0108091    -0.0113579    -0.0122344    -0.0131698    -0.00899052   0.004019      0.0100462     0.00401837    -0.0089909    -0.01317      -0.0122345    -0.0113579    -0.010809     0.000869173   0.00218554    0.00359806    0.00552699    0.00796014    0.0105425     0.01363       0.0168097     0.0193858     0.0207432     0.0193857     0.0168096     0.0136299     0.0105424     0.00796007    0.00552694    0.00359804    0.00218554    0.0008692    
10.2          -0.0379613    -0.0806539    -0.156472     -1.79769e+307 -0.156469     -0.0806523    -0.0379608    -0.0289831    -0.0280588    0.00102389    -1.79769e+307 0.00102022    -0.0280587    -0.0289829    -0.0108196    -0.0113565    -0.0121899    -0.0131158    -0.00889528   0.00424441    0.0100524     0.00424373    -0.00889574   -0.0131161    -0.01219      -0.0113566    -0.0108197    0.000890135   0.00220408    0.00361719    0.00554986    0.00798582    0.0105758     0.0136726     0.0168513     0.0194155     0.0207601     0.0194154     0.0168511     0.0136724     0.0105757     0.00798568    0.00554973    0.00361709    0.00220399    0.000890062  
10.5          -0.0382674    -0.0804248    -0.152342     -1.79769e+307 -0.152339     -0.0804225    -0.0382671    -0.0295822    -0.0288569    0.00274878    -1.79769e+307 0.00274742    -0.0288566    -0.029582     -0.0108476    -0.0113939    -0.0121948    -0.013118     -0.0088646    0.00443745    0.0100803     0.00443679    -0.00886506   -0.0131183    -0.0121949    -0.011394     -0.0108476    0.000928065   0.00223289    0.00363618    0.00556652    0.00799834    0.0105938     0.0136989     0.0168667     0.0194186     0.0207598     0.0194185     0.0168665     0.0136987     0.0105936     0.0079982     0.0055664     0.00363608    0.0022328     0.000927995  
10.8          -0.0385274    -0.0799714    -0.147793     -1.79769e+307 -0.147789     -0.0799692    -0.0385272    -0.0301904    -0.0297733    0.0043178     -1.79769e+307 0.0043183     -0.029773     -0.0301903    -0.0108499    -0.0114078    -0.0121932    -0.0131161    -0.00884225   0.00463913    0.0101535     0.00463849    -0.00884271   -0.0131163    -0.0121934    -0.0114079    -0.0108499    0.0009693     0.00226827    0.00365825    0.00558459    0.00800974    0.0106083     0.0137198     0.0168684     0.0194076     0.0207536     0.0194074     0.0168682     0.0137196     0.0106081     0.00800958    0.00558446    0.00365814    0.00226818    0.000969222  
11.1          -0.0387116    -0.0794954    -0.141719     -1.79769e+307 -0.141713     -0.0794946    -0.0387115    -0.0308156    -0.0308459    0.00555172    -1.79769e+307 0.00555217    -0.0308457    -0.0308154    -0.0108418    -0.0113975    -0.0121774    -0.0130934    -0.00879111   0.00486261    0.0102643     0.00486199    -0.00879155   -0.0130936    -0.0121775    -0.0113976    -0.0108419    0.000992333   0.00229286    0.0036697     0.00559342    0.00801284    0.0106125     0.0137273     0.0168499     0.0193749     0.0207335     0.0193748     0.0168498     0.0137271     0.0106123     0.00801268    0.00559327    0.00366958    0.00229275    0.000992239  
11.4          -0.0388754    -0.0793142    -0.135501     -1.79769e+307 -0.135569     -0.0793085    -0.0388729    -0.0314398    -0.032039     0.00645496    -1.79769e+307 0.00645346    -0.0320393    -0.0314392    -0.0108189    -0.0113553    -0.0121264    -0.0130341    -0.00868792   0.00510077    0.0104155     0.00510022    -0.00868829   -0.0130343    -0.0121264    -0.0113552    -0.0108188    0.000999501   0.00231249    0.00368342    0.00560858    0.00802543    0.0106262     0.0137421     0.0168341     0.0193429     0.0207186     0.0193428     0.0168339     0.0137419     0.0106261     0.00802534    0.00560853    0.0036834     0.00231251    0.000999553  
11.7          -0.0390752    -0.0794368    -0.130563     -1.79769e+307 -0.130563     -0.0794402    -0.0390754    -0.0321453    -0.0334559    0.00711989    -1.79769e+307 0.00712003    -0.0334556    -0.0321451    -0.0107956    -0.0112995    -0.0120468    -0.0129436    -0.00855166   0.00536517    0.0106232     0.00536471    -0.00855196   -0.0129437    -0.0120468    -0.0112995    -0.0107956    0.000995911   0.00232771    0.00370395    0.00563429    0.00805113    0.0106545     0.0137707     0.0168308     0.0193225     0.0207151     0.0193224     0.0168307     0.0137705     0.0106543     0.00805099    0.00563418    0.00370386    0.00232764    0.000995852  
12            -0.0393861    -0.0797333    -0.127242     -1.79769e+307 -0.127219     -0.0797369    -0.0393875    -0.0329346    -0.0350938    0.00764455    -1.79769e+307 0.0076463     -0.035093     -0.0329344    -0.0107491    -0.0112059    -0.0119074    -0.0127788    -0.00835799   0.00568963    0.0109166     0.00569016    -0.00835711   -0.0127778    -0.0119066    -0.0112052    -0.0107485    0.00101558    0.00236513    0.00375555    0.00569363    0.00811197    0.0107199     0.0138369     0.0168662     0.0193407     0.0207483     0.0193406     0.0168662     0.0138369     0.01072       0.00811208    0.00569379    0.00375573    0.00236531    0.00101577   
12.3          -0.0397113    -0.0797458    -0.125277     -1.79769e+307 -0.125268     -0.0797494    -0.0397136    -0.0338274    -0.0370955    0.00772485    -1.79769e+307 0.00772666    -0.0370959    -0.0338284    -0.0106968    -0.0110981    -0.0117375    -0.0125628    -0.00812158   0.0060312     0.011251      0.00603089    -0.00812182   -0.012563     -0.0117377    -0.0110983    -0.0106971    0.00104576    0.00240847    0.00381802    0.00576471    0.00818467    0.010799      0.0139164     0.0169167     0.0193734     0.0207933     0.0193733     0.0169164     0.0139161     0.0107987     0.00818441    0.00576446    0.00381777    0.00240821    0.0010455    