# Probe 0 (0.5 -1.5 0.05)
# Probe 1 (0.5 -1 0.05)
# Probe 2 (0.5 -0.5 0.05)
# Probe 3 (0.5 0 0.05)
# Probe 4 (0.5 0.5 0.05)
# Probe 5 (0.5 1 0.05)
# Probe 6 (0.5 1.5 0.05)
# Probe 7 (1.5 -1.5 0.05)
# Probe 8 (1.5 -1 0.05)
# Probe 9 (1.5 -0.5 0.05)
# Probe 10 (1.5 0 0.05)
# Probe 11 (1.5 0.5 0.05)
# Probe 12 (1.5 1 0.05)
# Probe 13 (1.5 1.5 0.05)
# Probe 14 (3 -1.5 0.05)
# Probe 15 (3 -1.25 0.05)
# Probe 16 (3 -1 0.05)
# Probe 17 (3 -0.75 0.05)
# Probe 18 (3 -0.5 0.05)
# Probe 19 (3 -0.25 0.05)
# Probe 20 (3 0 0.05)
# Probe 21 (3 0.25 0.05)
# Probe 22 (3 0.5 0.05)
# Probe 23 (3 0.75 0.05)
# Probe 24 (3 1 0.05)
# Probe 25 (3 1.25 0.05)
# Probe 26 (3 1.5 0.05)
# Probe 27 (4 -1.5 0.05)
# Probe 28 (4 -1.333 0.05)
# Probe 29 (4 -1.167 0.05)
# Probe 30 (4 -1 0.05)
# Probe 31 (4 -0.833 0.05)
# Probe 32 (4 -0.667 0.05)
# Probe 33 (4 -0.5 0.05)
# Probe 34 (4 -0.333 0.05)
# Probe 35 (4 -0.167 0.05)
# Probe 36 (4 0 0.05)
# Probe 37 (4 0.167 0.05)
# Probe 38 (4 0.333 0.05)
# Probe 39 (4 0.5 0.05)
# Probe 40 (4 0.667 0.05)
# Probe 41 (4 0.833 0.05)
# Probe 42 (4 1 0.05)
# Probe 43 (4 1.167 0.05)
# Probe 44 (4 1.333 0.05)
# Probe 45 (4 1.5 0.05)
# Time        0             1             2             3             4             5             6             7             8             9             10            11            12            13            14            15            16            17            18            19            20            21            22            23            24            25            26            27            28            29            30            31            32            33            34            35            36            37            38            39            40            41            42            43            44            45           
0             (0 0 0)       (0 0 0)       (0 0 0)       (-1.79769e+307 -1.79769e+307 -1.79769e+307) (0 0 0)       (0 0 0)       (0 0 0)       (0 0 0)       (0 0 0)       (0 0 0)       (-1.79769e+307 -1.79769e+307 -1.79769e+307) (0 0 0)       (0 0 0)       (0 0 0)       (0 0 0)       (0 0 0)       (0 0 0)       (0 0 0)       (0 0 0)       (0 0 0)       (0 0 0)       (0 0 0)       (0 0 0)       (0 0 0)       (0 0 0)       (0 0 0)       (0 0 0)       (0 0 0)       (0 0 0)       (0 0 0)       (0 0 0)       (0 0 0)       (0 0 0)       (0 0 0)       (0 0 0)       (0 0 0)       (0 0 0)       (0 0 0)       (0 0 0)       (0 0 0)       (0 0 0)       (0 0 0)       (0 0 0)       (0 0 0)       (0 0 0)       (0 0 0)      
0.3           (0.456668 -0.023667 1.28738e-23) (0.485617 -0.0297029 -2.02074e-23) (0 0 0)       (-1.79769e+307 -1.79769e+307 -1.79769e+307) (0 0 0)       (0.485619 0.0296983 -3.20672e-23) (0.456669 0.023666 -5.54895e-23) (0.457079 0.0197206 -9.97676e-24) (0.485118 0.0244039 -3.42868e-24) (0 0 0)       (-1.79769e+307 -1.79769e+307 -1.79769e+307) (0 0 0)       (0.485117 -0.0244045 -3.64593e-23) (0.457078 -0.0197212 1.68606e-24) (0.402454 0.0371102 -8.42643e-23) (0.394752 0.0429365 -7.43826e-24) (0.382189 0.0479924 2.05354e-22) (0.364415 0.0494278 -2.13812e-23) (0.346396 0.0417663 2.87753e-22) (0.33028 0.0245036 5.75208e-23) (0.322951 2.32057e-07 0) (0.33028 -0.0245034 -3.20641e-23) (0.346395 -0.0417661 -2.37363e-22) (0.364414 -0.0494276 2.1383e-23) (0.382188 -0.047992 -2.20253e-22) (0.394751 -0.0429364 4.4604e-24) (0.402454 -0.03711 -6.24529e-24) (0.390981 0.0180698 0) (0.388627 0.0179482 0) (0.386179 0.0178579 0) (0.38345 0.0169119 0) (0.380758 0.0150914 0) (0.377993 0.0134418 0) (0.375513 0.0109464 0) (0.373993 0.0073963 0) (0.372662 0.00384698 0) (0.371736 1.11142e-07 0) (0.372662 -0.00384677 0) (0.373993 -0.0073961 0) (0.375513 -0.0109462 0) (0.377993 -0.0134416 0) (0.380758 -0.0150912 0) (0.38345 -0.0169118 0) (0.386179 -0.0178578 0) (0.388627 -0.0179481 0) (0.390981 -0.0180697 0)
0.6           (0.456671 -0.024205 1.43574e-23) (0.48505 -0.0289963 -2.13806e-23) (0 0 0)       (-1.79769e+307 -1.79769e+307 -1.79769e+307) (0 0 0)       (0.485056 0.0289945 -3.39218e-23) (0.456672 0.0242048 -5.87019e-23) (0.457261 0.0181018 -1.08906e-23) (0.483637 0.0215289 -3.56276e-24) (0 0 0)       (-1.79769e+307 -1.79769e+307 -1.79769e+307) (0 0 0)       (0.483636 -0.0215298 -3.803e-23) (0.457261 -0.0181025 1.79497e-24) (0.403816 0.0400087 -4.61459e-22) (0.395446 0.0459988 1.4656e-24) (0.382601 0.051806 1.00475e-22) (0.363769 0.0546839 -1.89687e-23) (0.342915 0.0470915 2.93804e-22) (0.324146 0.0280212 5.95977e-23) (0.315419 2.24164e-07 0) (0.324145 -0.0280209 -3.32172e-23) (0.342914 -0.0470913 -2.41963e-22) (0.363769 -0.0546837 1.89697e-23) (0.382601 -0.0518058 -1.08926e-22) (0.395446 -0.0459987 -9.70672e-24) (0.403816 -0.0400086 1.80917e-22) (0.390806 0.0189732 0) (0.388297 0.0189932 0) (0.38572 0.0190154 0) (0.382782 0.0181171 0) (0.379869 0.0162456 0) (0.376881 0.0145674 0) (0.374164 0.0119279 0) (0.37251 0.00807134 0) (0.37102 0.00420924 0) (0.369965 9.6224e-08 0) (0.371019 -0.00420907 0) (0.37251 -0.00807118 0) (0.374164 -0.0119278 0) (0.376881 -0.0145672 0) (0.379869 -0.0162454 0) (0.382782 -0.018117 0) (0.38572 -0.0190154 0) (0.388297 -0.0189932 0) (0.390806 -0.0189731 0)
0.9           (0.456886 -0.0245375 1.49042e-23) (0.484886 -0.0272586 -2.20454e-23) (0 0 0)       (-1.79769e+307 -1.79769e+307 -1.79769e+307) (0 0 0)       (0.484892 0.0272627 -3.49263e-23) (0.456887 0.0245381 -6.01281e-23) (0.457354 0.0167693 -1.12126e-23) (0.482022 0.0191274 -3.55842e-24) (0 0 0)       (-1.79769e+307 -1.79769e+307 -1.79769e+307) (0 0 0)       (0.482021 -0.0191285 -3.80849e-23) (0.457354 -0.01677 1.84255e-24) (0.40342 0.04317 -8.55098e-22) (0.396579 0.0482886 9.95745e-24) (0.383446 0.0556866 -7.59193e-24) (0.363503 0.0604911 -1.514e-23) (0.339446 0.0535874 3.03019e-22) (0.317203 0.0324949 6.36108e-23) (0.30656 2.22947e-07 0) (0.317203 -0.0324946 -3.52358e-23) (0.339446 -0.0535871 -2.49123e-22) (0.363502 -0.0604908 1.51424e-23) (0.383446 -0.0556864 7.04516e-24) (0.396579 -0.0482884 -2.20812e-23) (0.403419 -0.04317 4.46611e-22) (0.390794 0.0198864 0) (0.388038 0.0201018 0) (0.385333 0.0202659 0) (0.382132 0.0194472 0) (0.378916 0.0175577 0) (0.375691 0.0158418 0) (0.372701 0.0130405 0) (0.370889 0.00884772 0) (0.369211 0.00462546 0) (0.368004 8.88346e-08 0) (0.369211 -0.0046253 0) (0.370888 -0.00884758 0) (0.372701 -0.0130403 0) (0.375691 -0.0158417 0) (0.378916 -0.0175576 0) (0.382132 -0.0194472 0) (0.385333 -0.0202659 0) (0.388038 -0.0201017 0) (0.390794 -0.0198864 0)
1.2           (0.457316 -0.0247521 1.54599e-23) (0.485444 -0.0248166 -2.29167e-23) (0 0 0)       (-1.79769e+307 -1.79769e+307 -1.79769e+307) (0 0 0)       (0.485446 0.0248233 -3.61802e-23) (0.457317 0.0247533 -6.20962e-23) (0.457374 0.0156616 -1.15345e-23) (0.480323 0.0171094 -3.57736e-24) (0 0 0)       (-1.79769e+307 -1.79769e+307 -1.79769e+307) (0 0 0)       (0.480322 -0.017111 -3.83762e-23) (0.457374 -0.0156624 1.90077e-24) (0.403808 0.0445905 -1.17595e-21) (0.397473 0.0506018 1.63336e-23) (0.384839 0.0592652 -8.65537e-23) (0.36372 0.0666572 -1.21124e-23) (0.336047 0.061102 3.31484e-22) (0.309524 0.0379085 7.18532e-23) (0.296428 2.65758e-07 0) (0.309524 -0.0379081 -3.95711e-23) (0.336046 -0.0611016 -2.72648e-22) (0.36372 -0.0666569 1.21102e-23) (0.384839 -0.059265 9.3054e-23) (0.397472 -0.0506018 -3.04236e-23) (0.403808 -0.0445906 6.70155e-22) (0.391018 0.0207749 0) (0.387937 0.0212061 0) (0.385054 0.0215474 0) (0.381551 0.0208309 0) (0.377977 0.0189526 0) (0.37447 0.0172053 0) (0.371166 0.0142442 0) (0.369166 0.00969638 0) (0.367282 0.00508266 0) (0.365902 8.88604e-08 0) (0.367282 -0.00508251 0) (0.369166 -0.00969624 0) (0.371166 -0.0142441 0) (0.37447 -0.0172052 0) (0.377976 -0.0189525 0) (0.381551 -0.0208309 0) (0.385053 -0.0215473 0) (0.387937 -0.0212061 0) (0.391018 -0.020775 0)
1.5           (0.457944 -0.0248739 1.60044e-23) (0.486925 -0.0217493 -2.39909e-23) (0 0 0)       (-1.79769e+307 -1.79769e+307 -1.79769e+307) (0 0 0)       (0.486924 0.0217552 -3.75876e-23) (0.457944 0.0248753 -6.42851e-23) (0.457335 0.0147766 -1.18475e-23) (0.478605 0.0155 -3.59978e-24) (0 0 0)       (-1.79769e+307 -1.79769e+307 -1.79769e+307) (0 0 0)       (0.478605 -0.0155022 -3.8687e-23) (0.457336 -0.0147774 1.96058e-24) (0.405101 0.0449463 -1.42785e-21) (0.398361 0.0527156 2.29153e-23) (0.386714 0.0625257 -1.69097e-22) (0.364645 0.0728834 -8.876e-24) (0.332853 0.0695476 3.70793e-22) (0.301216 0.0443196 8.32162e-23) (0.285049 3.11795e-07 0) (0.301216 -0.0443191 -4.55594e-23) (0.332853 -0.0695471 -3.05554e-22) (0.364644 -0.0728831 8.87667e-24) (0.386714 -0.0625256 1.81796e-22) (0.398361 -0.0527157 -3.87782e-23) (0.405101 -0.0449464 8.33444e-22) (0.391413 0.0216751 0) (0.388032 0.0222793 0) (0.384878 0.022831 0) (0.381054 0.0222257 0) (0.377091 0.0203716 0) (0.373255 0.01861 0) (0.369602 0.0154988 0) (0.367389 0.0105857 0) (0.365286 0.00556631 0) (0.363714 9.2993e-08 0) (0.365286 -0.00556615 0) (0.367389 -0.0105856 0) (0.369602 -0.0154986 0) (0.373255 -0.0186099 0) (0.37709 -0.0203716 0) (0.381054 -0.0222256 0) (0.384877 -0.022831 0) (0.388032 -0.0222793 0) (0.391413 -0.0216752 0)
1.8           (0.458737 -0.0249004 1.65973e-23) (0.488701 -0.0187265 -2.53281e-23) (0 0 0)       (-1.79769e+307 -1.79769e+307 -1.79769e+307) (0 0 0)       (0.488698 0.0187325 -3.93115e-23) (0.458737 0.0249018 -6.68085e-23) (0.457256 0.0140778 -1.21855e-23) (0.476908 0.0142748 -3.63498e-24) (0 0 0)       (-1.79769e+307 -1.79769e+307 -1.79769e+307) (0 0 0)       (0.476909 -0.0142776 -3.91294e-23) (0.457256 -0.0140784 2.02508e-24) (0.406553 0.0451702 -1.63383e-21) (0.400029 0.0538107 2.98406e-23) (0.388643 0.0657301 -2.49159e-22) (0.366321 0.0790671 -5.02676e-24) (0.330072 0.0789145 4.12917e-22) (0.292366 0.051843 9.62203e-23) (0.272404 3.71003e-07 0) (0.292366 -0.0518423 -5.2414e-23) (0.330071 -0.0789139 -3.41463e-22) (0.36632 -0.0790668 5.02943e-24) (0.388642 -0.0657301 2.68752e-22) (0.400028 -0.0538108 -4.77277e-23) (0.406552 -0.0451703 9.59884e-22) (0.391843 0.0226637 0) (0.388267 0.0233628 0) (0.384786 0.0241163 0) (0.380628 0.0236172 0) (0.376273 0.0217887 0) (0.372068 0.0200359 0) (0.368035 0.0167882 0) (0.365584 0.0115001 0) (0.363258 0.00606882 0) (0.361481 1.06317e-07 0) (0.363258 -0.00606862 0) (0.365584 -0.0115 0) (0.368035 -0.0167881 0) (0.372068 -0.0200357 0) (0.376273 -0.0217886 0) (0.380627 -0.0236172 0) (0.384786 -0.0241163 0) (0.388266 -0.0233628 0) (0.391843 -0.0226637 0)
2.1           (0.459759 -0.0246531 1.71991e-23) (0.490953 -0.0159764 -2.69935e-23) (0 0 0)       (-1.79769e+307 -1.79769e+307 -1.79769e+307) (0 0 0)       (0.490948 0.0159831 -4.12949e-23) (0.459758 0.0246544 -6.94826e-23) (0.457145 0.013523 -1.24885e-23) (0.475245 0.0133892 -3.66106e-24) (0 0 0)       (-1.79769e+307 -1.79769e+307 -1.79769e+307) (0 0 0)       (0.475248 -0.0133922 -3.94697e-23) (0.457146 -0.0135235 2.08347e-24) (0.40795 0.0454235 -1.83157e-21) (0.401848 0.054669 3.63501e-23) (0.390931 0.0684679 -3.32655e-22) (0.368661 0.0851198 4.20175e-25) (0.328109 0.0891744 4.51338e-22) (0.282983 0.0607339 1.09483e-22) (0.258393 4.31025e-07 0) (0.282983 -0.060733 -5.94793e-23) (0.328108 -0.0891736 -3.75559e-22) (0.36866 -0.0851195 -4.19129e-25) (0.39093 -0.0684679 3.60776e-22) (0.401847 -0.0546691 -5.64357e-23) (0.40795 -0.0454237 1.08224e-21) (0.392212 0.0237622 0) (0.38852 0.0245019 0) (0.38473 0.0254006 0) (0.380261 0.0249921 0) (0.375523 0.0231884 0) (0.370922 0.0214687 0) (0.366486 0.0181031 0) (0.363775 0.0124328 0) (0.361229 0.00658445 0) (0.359234 1.21976e-07 0) (0.361229 -0.00658422 0) (0.363775 -0.0124326 0) (0.366486 -0.0181029 0) (0.370922 -0.0214686 0) (0.375523 -0.0231884 0) (0.380261 -0.0249921 0) (0.38473 -0.0254006 0) (0.38852 -0.0245019 0) (0.392212 -0.0237623 0)
2.4           (0.461093 -0.0238215 1.77903e-23) (0.494656 -0.0124508 -2.89404e-23) (0 0 0)       (-1.79769e+307 -1.79769e+307 -1.79769e+307) (0 0 0)       (0.494651 0.012456 -4.35247e-23) (0.461092 0.0238228 -7.22081e-23) (0.457017 0.0130758 -1.27847e-23) (0.473601 0.0127876 -3.68704e-24) (0 0 0)       (-1.79769e+307 -1.79769e+307 -1.79769e+307) (0 0 0)       (0.473606 -0.0127903 -3.98057e-23) (0.457019 -0.013076 2.13977e-24) (0.409277 0.0456959 -2.03159e-21) (0.403659 0.0555139 4.2699e-23) (0.393553 0.070774 -4.20809e-22) (0.371693 0.0907447 7.47696e-24) (0.327416 0.100123 4.81619e-22) (0.272951 0.0713854 1.21742e-22) (0.242842 5.01586e-07 0) (0.27295 -0.0713842 -6.62504e-23) (0.327415 -0.100122 -4.04942e-22) (0.371692 -0.0907443 -7.47703e-24) (0.393553 -0.0707741 4.58471e-22) (0.403659 -0.055514 -6.51168e-23) (0.409277 -0.0456961 1.20573e-21) (0.392488 0.0249422 0) (0.388714 0.025701 0) (0.384667 0.026675 0) (0.379932 0.0263423 0) (0.374833 0.0245643 0) (0.369823 0.0228995 0) (0.364963 0.0194384 0) (0.361983 0.0133821 0) (0.359224 0.00711295 0) (0.357 1.42986e-07 0) (0.359224 -0.00711268 0) (0.361983 -0.0133819 0) (0.364963 -0.0194382 0) (0.369823 -0.0228993 0) (0.374833 -0.0245642 0) (0.379932 -0.0263422 0) (0.384667 -0.026675 0) (0.388714 -0.025701 0) (0.392488 -0.0249423 0)
2.7           (0.462514 -0.0232931 1.84384e-23) (0.499393 -0.0088907 -3.1202e-23) (0 0 0)       (-1.79769e+307 -1.79769e+307 -1.79769e+307) (0 0 0)       (0.499388 0.00889456 -4.61412e-23) (0.462513 0.0232943 -7.51351e-23) (0.456888 0.0127127 -1.30579e-23) (0.471959 0.0124842 -3.70384e-24) (0 0 0)       (-1.79769e+307 -1.79769e+307 -1.79769e+307) (0 0 0)       (0.471965 -0.0124846 -4.00398e-23) (0.45689 -0.0127125 2.19126e-24) (0.410573 0.0459635 -2.23364e-21) (0.405457 0.0563532 4.93886e-23) (0.396219 0.0728827 -5.15779e-22) (0.375336 0.0957908 1.61457e-23) (0.328312 0.111381 4.96843e-22) (0.262216 0.0840604 1.31579e-22) (0.225364 5.64758e-07 0) (0.262216 -0.0840589 -7.17445e-23) (0.328311 -0.11138 -4.2551e-22) (0.375335 -0.0957905 -1.61436e-23) (0.396218 -0.0728828 5.64137e-22) (0.405456 -0.0563534 -7.42422e-23) (0.410573 -0.0459637 1.32893e-21) (0.392673 0.0261517 0) (0.388818 0.0269317 0) (0.384583 0.0279203 0) (0.37962 0.0276601 0) (0.37419 0.0259181 0) (0.368771 0.0243243 0) (0.363468 0.0207942 0) (0.360218 0.0143511 0) (0.357258 0.00765943 0) (0.354792 1.67341e-07 0) (0.357258 -0.00765912 0) (0.360218 -0.0143508 0) (0.363468 -0.020794 0) (0.368771 -0.0243241 0) (0.37419 -0.025918 0) (0.37962 -0.0276601 0) (0.384583 -0.0279203 0) (0.388817 -0.0269317 0) (0.392673 -0.0261518 0)
3             (0.463884 -0.0233227 1.91246e-23) (0.504838 -0.00609015 -3.36635e-23) (0 0 0)       (-1.79769e+307 -1.79769e+307 -1.79769e+307) (0 0 0)       (0.504832 0.00609323 -4.89178e-23) (0.463882 0.0233237 -7.8121e-23) (0.456775 0.012426 -1.32926e-23) (0.47045 0.0125563 -3.71001e-24) (0 0 0)       (-1.79769e+307 -1.79769e+307 -1.79769e+307) (0 0 0)       (0.470455 -0.0125536 -4.01639e-23) (0.456777 -0.0124254 2.23606e-24) (0.411834 0.0462419 -2.41935e-21) (0.407232 0.0571511 5.58411e-23) (0.398855 0.0747676 -6.10257e-22) (0.379349 0.100228 2.51785e-23) (0.330925 0.12236 4.96908e-22) (0.251066 0.0984895 1.36658e-22) (0.205827 6.01133e-07 0) (0.251066 -0.0984876 -7.56736e-23) (0.330923 -0.122358 -4.38021e-22) (0.379348 -0.100227 -2.51841e-23) (0.398854 -0.0747678 6.69316e-22) (0.407231 -0.0571514 -8.29563e-23) (0.411834 -0.0462422 1.44227e-21) (0.392784 0.0273335 0) (0.38883 0.0281483 0) (0.384475 0.0291111 0) (0.379316 0.0289298 0) (0.373576 0.0272476 0) (0.367768 0.0257372 0) (0.362001 0.0221709 0) (0.358485 0.015347 0) (0.355347 0.00823042 0) (0.352627 1.9587e-07 0) (0.355346 -0.00823006 0) (0.358485 -0.0153467 0) (0.362001 -0.0221706 0) (0.367768 -0.025737 0) (0.373576 -0.0272475 0) (0.379316 -0.0289298 0) (0.384475 -0.0291111 0) (0.38883 -0.0281483 0) (0.392784 -0.0273335 0)
3.3           (0.465322 -0.0228543 1.97398e-23) (0.511102 -0.00433941 -3.60759e-23) (0 0 0)       (-1.79769e+307 -1.79769e+307 -1.79769e+307) (0 0 0)       (0.511096 0.00434183 -5.16914e-23) (0.46532 0.0228557 -8.08137e-23) (0.456699 0.0122141 -1.34888e-23) (0.469231 0.012968 -3.70607e-24) (0 0 0)       (-1.79769e+307 -1.79769e+307 -1.79769e+307) (0 0 0)       (0.469234 -0.0129649 -4.01655e-23) (0.456701 -0.0122133 2.27199e-24) (0.41306 0.0465446 -2.60148e-21) (0.408979 0.0578916 6.27312e-23) (0.401465 0.0763969 -7.14782e-22) (0.383622 0.104037 3.64041e-23) (0.335161 0.132466 4.79669e-22) (0.239964 0.113566 1.35626e-22) (0.183866 5.87772e-07 0) (0.239963 -0.113564 -7.77442e-23) (0.335159 -0.132464 -4.40119e-22) (0.383621 -0.104037 -3.64034e-23) (0.401463 -0.0763972 7.84845e-22) (0.408979 -0.057892 -9.20006e-23) (0.41306 -0.046545 1.55295e-21) (0.392844 0.0284417 0) (0.388771 0.0293099 0) (0.384349 0.030232 0) (0.379024 0.0301432 0) (0.372985 0.0285525 0) (0.366816 0.0271417 0) (0.36056 0.0235815 0) (0.356765 0.0163928 0) (0.353468 0.00884118 0) (0.350474 2.32479e-07 0) (0.353468 -0.00884075 0) (0.356765 -0.0163925 0) (0.36056 -0.0235811 0) (0.366815 -0.0271415 0) (0.372985 -0.0285524 0) (0.379023 -0.0301431 0) (0.384349 -0.030232 0) (0.388771 -0.0293099 0) (0.392843 -0.0284418 0)
3.6           (0.466837 -0.0224225 2.03715e-23) (0.518407 -0.00333999 -3.83554e-23) (0 0 0)       (-1.79769e+307 -1.79769e+307 -1.79769e+307) (0 0 0)       (0.5184 0.00334137 -5.45046e-23) (0.466835 0.0224238 -8.34743e-23) (0.456671 0.0120947 -1.36636e-23) (0.468118 0.0135028 -3.69623e-24) (0 0 0)       (-1.79769e+307 -1.79769e+307 -1.79769e+307) (0 0 0)       (0.468119 -0.0135003 -4.01003e-23) (0.456672 -0.0120938 2.30405e-24) (0.414241 0.0468657 -2.77241e-21) (0.410666 0.0585658 6.94227e-23) (0.404005 0.0777514 -8.16675e-22) (0.388029 0.107222 4.91331e-23) (0.3406 0.141113 4.43802e-22) (0.22993 0.127694 1.28862e-22) (0.159446 4.83786e-07 0) (0.22993 -0.127691 -7.7412e-23) (0.340597 -0.141111 -4.29248e-22) (0.388027 -0.107222 -4.91316e-23) (0.404004 -0.0777519 8.985e-22) (0.410665 -0.0585664 -1.00737e-22) (0.414241 -0.0468662 1.65697e-21) (0.392872 0.0294365 0) (0.388668 0.0303756 0) (0.384212 0.0312654 0) (0.378747 0.0312843 0) (0.372426 0.029815 0) (0.365924 0.0285247 0) (0.359158 0.0250224 0) (0.355053 0.0175081 0) (0.351611 0.00950762 0) (0.348303 2.815e-07 0) (0.351611 -0.00950709 0) (0.355053 -0.0175076 0) (0.359157 -0.025022 0) (0.365924 -0.0285244 0) (0.372426 -0.0298149 0) (0.378747 -0.0312842 0) (0.384212 -0.0312654 0) (0.388667 -0.0303756 0) (0.392871 -0.0294366 0)
3.9           (0.468309 -0.0222513 2.10705e-23) (0.526295 -0.0032471 -4.0625e-23) (0 0 0)       (-1.79769e+307 -1.79769e+307 -1.79769e+307) (0 0 0)       (0.526288 0.00324672 -5.75724e-23) (0.468307 0.0222515 -8.64478e-23) (0.456698 0.012114 -1.384e-23) (0.466816 0.0138909 -3.68393e-24) (0 0 0)       (-1.79769e+307 -1.79769e+307 -1.79769e+307) (0 0 0)       (0.466816 -0.0138881 -4.00147e-23) (0.456698 -0.0121131 2.33711e-24) (0.41536 0.0471834 -2.93686e-21) (0.412255 0.0591573 7.60193e-23) (0.406428 0.0788332 -9.1923e-22) (0.392468 0.109756 6.22018e-23) (0.346787 0.148135 3.85517e-22) (0.221567 0.139687 1.16536e-22) (0.132998 2.38867e-07 0) (0.221566 -0.139685 -7.43356e-23) (0.346784 -0.148133 -3.98852e-22) (0.392465 -0.109756 -6.21978e-23) (0.406427 -0.0788339 1.01306e-21) (0.412254 -0.059158 -1.09322e-22) (0.415359 -0.047184 1.75676e-21) (0.392887 0.0302871 0) (0.38855 0.0313111 0) (0.384077 0.0321947 0) (0.378499 0.0323366 0) (0.371924 0.0310148 0) (0.365123 0.0298713 0) (0.357836 0.0264886 0) (0.353358 0.0187204 0) (0.34976 0.0102562 0) (0.346097 3.39353e-07 0) (0.34976 -0.0102555 0) (0.353358 -0.0187198 0) (0.357835 -0.0264881 0) (0.365122 -0.0298709 0) (0.371923 -0.0310146 0) (0.378499 -0.0323364 0) (0.384076 -0.0321947 0) (0.388549 -0.0313111 0) (0.392886 -0.0302872 0)
4.2           (0.469878 -0.0222056 2.18073e-23) (0.533967 -0.00407778 -4.27256e-23) (0 0 0)       (-1.79769e+307 -1.79769e+307 -1.79769e+307) (0 0 0)       (0.53396 0.00407575 -6.06218e-23) (0.469876 0.0222053 -8.95774e-23) (0.456812 0.0124343 -1.40023e-23) (0.46542 0.0143513 -3.66395e-24) (0 0 0)       (-1.79769e+307 -1.79769e+307 -1.79769e+307) (0 0 0)       (0.465419 -0.0143483 -3.98511e-23) (0.456813 -0.0124335 2.36781e-24) (0.416392 0.0475037 -3.09007e-21) (0.413738 0.0596633 8.25636e-23) (0.40873 0.0796776 -1.02641e-21) (0.396863 0.111651 7.44361e-23) (0.353381 0.153436 3.12186e-22) (0.214642 0.148905 9.95066e-23) (0.105433 -2.21589e-07 0) (0.214642 -0.148904 -6.91409e-23) (0.353378 -0.153435 -3.54251e-22) (0.39686 -0.111651 -7.44348e-23) (0.408728 -0.0796787 1.13198e-21) (0.413737 -0.0596642 -1.17796e-22) (0.416392 -0.0475044 1.84942e-21) (0.392903 0.03098 0) (0.388446 0.032099 0) (0.383962 0.0330187 0) (0.378297 0.0332994 0) (0.371501 0.0321463 0) (0.364439 0.0311819 0) (0.35664 0.0279881 0) (0.351687 0.0200644 0) (0.347849 0.0111207 0) (0.343784 4.00888e-07 0) (0.347849 -0.0111199 0) (0.351686 -0.0200637 0) (0.356639 -0.0279875 0) (0.364439 -0.0311815 0) (0.371501 -0.032146 0) (0.378296 -0.0332992 0) (0.383961 -0.0330186 0) (0.388446 -0.032099 0) (0.392903 -0.03098 0)
4.5           (0.471673 -0.0223118 2.25414e-23) (0.541225 -0.00574438 -4.44997e-23) (0 0 0)       (-1.79769e+307 -1.79769e+307 -1.79769e+307) (0 0 0)       (0.541219 0.00574192 -6.34374e-23) (0.471671 0.0223117 -9.26466e-23) (0.456984 0.0131041 -1.41631e-23) (0.464128 0.0151602 -3.64276e-24) (0 0 0)       (-1.79769e+307 -1.79769e+307 -1.79769e+307) (0 0 0)       (0.464128 -0.0151578 -3.96728e-23) (0.456985 -0.0131033 2.39819e-24) (0.417303 0.047853 -3.22748e-21) (0.415105 0.060085 8.89416e-23) (0.410889 0.0803076 -1.13387e-21) (0.401088 0.112933 8.55825e-23) (0.359686 0.15703 2.34719e-22) (0.208739 0.15505 8.00923e-23) (0.0779847 -8.87154e-07 0) (0.208739 -0.155049 -6.25639e-23) (0.359682 -0.157029 -3.04061e-22) (0.401084 -0.112935 -8.5582e-23) (0.410888 -0.0803091 1.25035e-21) (0.415104 -0.0600861 -1.26017e-22) (0.417302 -0.0478538 1.93114e-21) (0.392928 0.0315117 0) (0.388376 0.0327343 0) (0.383881 0.0337396 0) (0.378152 0.0341728 0) (0.371176 0.033202 0) (0.363894 0.0324485 0) (0.355621 0.0295119 0) (0.350072 0.0215529 0) (0.345809 0.012121 0) (0.341268 4.74647e-07 0) (0.345809 -0.0121201 0) (0.350072 -0.0215521 0) (0.35562 -0.0295112 0) (0.363893 -0.032448 0) (0.371175 -0.0332017 0) (0.378152 -0.0341727 0) (0.383881 -0.0337396 0) (0.388376 -0.0327343 0) (0.392927 -0.0315118 0)
4.8           (0.473627 -0.0226063 2.32002e-23) (0.548345 -0.00821028 -4.57304e-23) (0 0 0)       (-1.79769e+307 -1.79769e+307 -1.79769e+307) (0 0 0)       (0.54834 0.0082081 -6.58411e-23) (0.473625 0.0226062 -9.54191e-23) (0.457126 0.0138397 -1.42979e-23) (0.462951 0.0163033 -3.61541e-24) (0 0 0)       (-1.79769e+307 -1.79769e+307 -1.79769e+307) (0 0 0)       (0.462952 -0.0163017 -3.94315e-23) (0.457126 -0.0138388 2.42524e-24) (0.418066 0.0482428 -3.33703e-21) (0.416339 0.060432 9.46045e-23) (0.412869 0.0807246 -1.23076e-21) (0.405004 0.113637 9.54471e-23) (0.365369 0.159131 1.6036e-22) (0.203614 0.158391 6.10282e-23) (0.0518169 -1.65469e-06 0) (0.203614 -0.15839 -5.56874e-23) (0.365363 -0.15913 -2.53232e-22) (0.405001 -0.11364 -9.54459e-23) (0.412868 -0.0807265 1.35689e-21) (0.416339 -0.0604331 -1.33304e-22) (0.418066 -0.0482436 1.99368e-21) (0.392969 0.0319052 0) (0.388351 0.0332328 0) (0.383849 0.0343715 0) (0.378075 0.0349669 0) (0.370959 0.0341868 0) (0.363498 0.0336738 0) (0.354827 0.0310554 0) (0.348557 0.023186 0) (0.343571 0.0132637 0) (0.338445 5.63863e-07 0) (0.343571 -0.0132626 0) (0.348556 -0.023185 0) (0.354826 -0.0310546 0) (0.363498 -0.0336733 0) (0.370958 -0.0341865 0) (0.378075 -0.0349668 0) (0.383848 -0.0343715 0) (0.388351 -0.0332328 0) (0.392969 -0.0319053 0)
5.1           (0.475616 -0.0231978 2.3765e-23) (0.555331 -0.0120477 -4.63735e-23) (0 0 0)       (-1.79769e+307 -1.79769e+307 -1.79769e+307) (0 0 0)       (0.555326 0.0120456 -6.78931e-23) (0.475614 0.0231978 -9.78195e-23) (0.457223 0.0144362 -1.44184e-23) (0.461877 0.0175565 -3.58861e-24) (0 0 0)       (-1.79769e+307 -1.79769e+307 -1.79769e+307) (0 0 0)       (0.461879 -0.0175554 -3.92032e-23) (0.457224 -0.0144351 2.45162e-24) (0.418688 0.0486388 -3.43624e-21) (0.417419 0.0607174 1.00048e-22) (0.414655 0.0809521 -1.32499e-21) (0.408492 0.113827 1.0387e-22) (0.370362 0.159819 8.74596e-23) (0.199107 0.159445 4.30351e-23) (0.0276129 -2.465e-06 0) (0.199109 -0.159445 -4.84122e-23) (0.370352 -0.159823 -2.00096e-22) (0.408491 -0.113832 -1.0387e-22) (0.414654 -0.0809541 1.45977e-21) (0.417419 -0.0607185 -1.40275e-22) (0.418688 -0.0486395 2.04902e-21) (0.393033 0.0321956 0) (0.388375 0.0336244 0) (0.383876 0.0349339 0) (0.378069 0.0356975 0) (0.37085 0.0351117 0) (0.363256 0.0348655 0) (0.354291 0.0326134 0) (0.347178 0.0249535 0) (0.34105 0.0145429 0) (0.3352 6.54715e-07 0) (0.34105 -0.0145416 0) (0.347178 -0.0249523 0) (0.35429 -0.0326126 0) (0.363255 -0.034865 0) (0.370849 -0.0351114 0) (0.378068 -0.0356974 0) (0.383875 -0.0349339 0) (0.388375 -0.0336245 0) (0.393033 -0.0321957 0)
5.4           (0.477552 -0.0240554 2.436e-23) (0.561531 -0.0174381 -4.65794e-23) (0 0 0)       (-1.79769e+307 -1.79769e+307 -1.79769e+307) (0 0 0)       (0.561525 0.017434 -6.97243e-23) (0.47755 0.024055 -1.00256e-22) (0.457312 0.0150322 -1.45566e-23) (0.460844 0.0187239 -3.56018e-24) (0 0 0)       (-1.79769e+307 -1.79769e+307 -1.79769e+307) (0 0 0)       (0.460846 -0.0187227 -3.89522e-23) (0.457311 -0.0150309 2.48094e-24) (0.419203 0.0489685 -3.52819e-21) (0.418327 0.060939 1.05028e-22) (0.416242 0.0810318 -1.41084e-21) (0.411463 0.11372 1.10708e-22) (0.374494 0.159323 1.84881e-23) (0.195175 0.158872 2.66475e-23) (0.00590825 -3.28781e-06 0) (0.195175 -0.158874 -4.10086e-23) (0.374481 -0.159333 -1.46882e-22) (0.411465 -0.113724 -1.10706e-22) (0.416242 -0.0810334 1.55256e-21) (0.418326 -0.0609399 -1.46595e-22) (0.419203 -0.0489691 2.10076e-21) (0.393116 0.032415 0) (0.388444 0.0339403 0) (0.383964 0.0354424 0) (0.378131 0.0363752 0) (0.370846 0.0359844 0) (0.363169 0.0360209 0) (0.354034 0.034164 0) (0.345995 0.0268175 0) (0.338191 0.0159406 0) (0.331444 7.26163e-07 0) (0.338191 -0.0159391 0) (0.345995 -0.0268161 0) (0.354033 -0.0341631 0) (0.363168 -0.0360204 0) (0.370845 -0.0359841 0) (0.378131 -0.0363752 0) (0.383963 -0.0354425 0) (0.388444 -0.0339404 0) (0.393116 -0.0324151 0)
5.7           (0.479398 -0.0250783 2.50111e-23) (0.566425 -0.0237752 -4.67695e-23) (0 0 0)       (-1.79769e+307 -1.79769e+307 -1.79769e+307) (0 0 0)       (0.56642 0.0237673 -7.14091e-23) (0.479397 0.0250775 -1.02876e-22) (0.457445 0.016038 -1.47073e-23) (0.459833 0.0199892 -3.52874e-24) (0 0 0)       (-1.79769e+307 -1.79769e+307 -1.79769e+307) (0 0 0)       (0.459835 -0.0199876 -3.86801e-23) (0.457444 -0.0160367 2.51411e-24) (0.419663 0.0491663 -3.62166e-21) (0.419075 0.0610754 1.09544e-22) (0.417637 0.0809849 -1.48752e-21) (0.41401 0.113455 1.1591e-22) (0.377535 0.158211 -3.89965e-23) (0.191746 0.157083 1.27957e-23) (-0.0132901 -3.98043e-06 0) (0.19174 -0.157088 -3.44974e-23) (0.377529 -0.15822 -1.01169e-22) (0.414012 -0.113456 -1.15911e-22) (0.417637 -0.0809859 1.6348e-21) (0.419074 -0.0610761 -1.52285e-22) (0.419663 -0.0491668 2.15647e-21) (0.393206 0.032594 0) (0.388554 0.0342092 0) (0.384108 0.0359109 0) (0.37826 0.0370104 0) (0.370941 0.036813 0) (0.363234 0.0371365 0) (0.354055 0.0356839 0) (0.345057 0.0287258 0) (0.334972 0.0174273 0) (0.327099 7.6067e-07 0) (0.334972 -0.0174257 0) (0.345056 -0.0287245 0) (0.354054 -0.0356831 0) (0.363233 -0.0371362 0) (0.37094 -0.0368128 0) (0.378259 -0.0370103 0) (0.384108 -0.0359109 0) (0.388554 -0.0342093 0) (0.393206 -0.0325941 0)
6             (0.481129 -0.0261728 2.56916e-23) (0.570057 -0.0300563 -4.70125e-23) (0 0 0)       (-1.79769e+307 -1.79769e+307 -1.79769e+307) (0 0 0)       (0.570056 0.0300473 -7.29714e-23) (0.481128 0.0261716 -1.0563e-22) (0.457553 0.0174395 -1.48648e-23) (0.458915 0.0217702 -3.49206e-24) (0 0 0)       (-1.79769e+307 -1.79769e+307 -1.79769e+307) (0 0 0)       (0.458917 -0.0217684 -3.83745e-23) (0.457553 -0.0174386 2.54757e-24) (0.420098 0.0492225 -3.7125e-21) (0.419702 0.0611037 1.13584e-22) (0.418856 0.0808196 -1.55515e-21) (0.416223 0.113008 1.19895e-22) (0.379521 0.156926 -8.75198e-23) (0.188789 0.154575 1.0613e-24) (-0.0300161 -4.39852e-06 0) (0.188777 -0.154584 -2.85658e-23) (0.379525 -0.156929 -6.18909e-23) (0.416223 -0.113008 -1.19899e-22) (0.418856 -0.0808205 1.70695e-21) (0.419702 -0.0611044 -1.57318e-22) (0.420098 -0.049223 2.21265e-21) (0.393297 0.0327616 0) (0.388698 0.0344569 0) (0.384301 0.0363495 0) (0.378451 0.0376089 0) (0.371129 0.0376019 0) (0.363445 0.038205 0) (0.354342 0.0371456 0) (0.344399 0.0306187 0) (0.331413 0.0189566 0) (0.322123 7.45046e-07 0) (0.331413 -0.018955 0) (0.344398 -0.0306174 0) (0.35434 -0.0371451 0) (0.363444 -0.0382049 0) (0.371128 -0.0376018 0) (0.37845 -0.0376089 0) (0.384301 -0.0363496 0) (0.388697 -0.0344569 0) (0.393297 -0.0327617 0)
6.3           (0.482781 -0.0272431 2.63828e-23) (0.573045 -0.0358901 -4.73534e-23) (0 0 0)       (-1.79769e+307 -1.79769e+307 -1.79769e+307) (0 0 0)       (0.573046 0.0358833 -7.44337e-23) (0.48278 0.0272419 -1.08439e-22) (0.457616 0.0188864 -1.50102e-23) (0.458072 0.0241328 -3.44725e-24) (0 0 0)       (-1.79769e+307 -1.79769e+307 -1.79769e+307) (0 0 0)       (0.458073 -0.0241309 -3.80003e-23) (0.457615 -0.0188857 2.57704e-24) (0.420506 0.0491692 -3.79381e-21) (0.420252 0.0610238 1.17075e-22) (0.419907 0.0805548 -1.61388e-21) (0.418113 0.112358 1.22985e-22) (0.380947 0.155424 -1.27672e-22) (0.18608 0.151734 -8.52068e-24) (-0.0444037 -4.51411e-06 0) (0.186067 -0.151743 -2.34171e-23) (0.380953 -0.155422 -2.81574e-23) (0.418112 -0.112358 -1.22988e-22) (0.419907 -0.0805556 1.76918e-21) (0.420252 -0.0610245 -1.61603e-22) (0.420506 -0.0491698 2.2639e-21) (0.393383 0.0329406 0) (0.388864 0.0347069 0) (0.384532 0.0367677 0) (0.3787 0.0381767 0) (0.371401 0.0383559 0) (0.363788 0.0392216 0) (0.354869 0.0385289 0) (0.344035 0.032439 0) (0.327572 0.0204771 0) (0.316509 6.81378e-07 0) (0.327571 -0.0204755 0) (0.344034 -0.0324378 0) (0.354867 -0.0385287 0) (0.363787 -0.0392215 0) (0.3714 -0.0383559 0) (0.378699 -0.0381767 0) (0.384531 -0.0367677 0) (0.388864 -0.034707 0) (0.393382 -0.0329407 0)