# Probe 0 (0.5 -1.5 0.05)
# Probe 1 (0.5 -1 0.05)
# Probe 2 (0.5 -0.5 0.05)
# Probe 3 (0.5 0 0.05)
# Probe 4 (0.5 0.5 0.05)
# Probe 5 (0.5 1 0.05)
# Probe 6 (0.5 1.5 0.05)
# Probe 7 (1.5 -1.5 0.05)
# Probe 8 (1.5 -1 0.05)
# Probe 9 (1.5 -0.5 0.05)
# Probe 10 (1.5 0 0.05)
# Probe 11 (1.5 0.5 0.05)
# Probe 12 (1.5 1 0.05)
# Probe 13 (1.5 1.5 0.05)
# Probe 14 (3 -1.5 0.05)
# Probe 15 (3 -1.25 0.05)
# Probe 16 (3 -1 0.05)
# Probe 17 (3 -0.75 0.05)
# Probe 18 (3 -0.5 0.05)
# Probe 19 (3 -0.25 0.05)
# Probe 20 (3 0 0.05)
# Probe 21 (3 0.25 0.05)
# Probe 22 (3 0.5 0.05)
# Probe 23 (3 0.75 0.05)
# Probe 24 (3 1 0.05)
# Probe 25 (3 1.25 0.05)
# Probe 26 (3 1.5 0.05)
# Probe 27 (4 -1.5 0.05)
# Probe 28 (4 -1.333 0.05)
# Probe 29 (4 -1.167 0.05)
# Probe 30 (4 -1 0.05)
# Probe 31 (4 -0.833 0.05)
# Probe 32 (4 -0.667 0.05)
# Probe 33 (4 -0.5 0.05)
# Probe 34 (4 -0.333 0.05)
# Probe 35 (4 -0.167 0.05)
# Probe 36 (4 0 0.05)
# Probe 37 (4 0.167 0.05)
# Probe 38 (4 0.333 0.05)
# Probe 39 (4 0.5 0.05)
# Probe 40 (4 0.667 0.05)
# Probe 41 (4 0.833 0.05)
# Probe 42 (4 1 0.05)
# Probe 43 (4 1.167 0.05)
# Probe 44 (4 1.333 0.05)
# Probe 45 (4 1.5 0.05)
# Time        0             1             2             3             4             5             6             7             8             9             10            11            12            13            14            15            16            17            18            19            20            21            22            23            24            25            26            27            28            29            30            31            32            33            34            35            36            37            38            39            40            41            42            43            44            45           
0             0             0             0             -1.79769e+307 0             0             0             0             0             0             -1.79769e+307 0             0             0             0             0             0             0             0             0             0             0             0             0             0             0             0             0             0             0             0             0             0             0             0             0             0             0             0             0             0             0             0             0             0             0            
0.3           -0.0145632    -0.0286545    -0.0457406    -1.79769e+307 -0.0457381    -0.0286503    -0.0145613    -0.0146089    -0.0240226    -0.0327932    -1.79769e+307 -0.0327909    -0.0240205    -0.0146081    0.000533447   0.00126543    0.00238759    0.00448794    0.00730513    0.00968405    0.0106416     0.00968409    0.00730524    0.00448809    0.00238791    0.0012658     0.000533819   0.00104851    0.00147071    0.00185751    0.00231835    0.00277571    0.00321495    0.00361321    0.00388186    0.0040919     0.00421903    0.00409192    0.00388191    0.00361329    0.00321505    0.00277584    0.00231851    0.00185769    0.00147092    0.00104873   
0.6           -0.0160585    -0.0310257    -0.048799     -1.79769e+307 -0.0487863    -0.0310184    -0.0160545    -0.0162327    -0.0255709    -0.0334829    -1.79769e+307 -0.0334796    -0.0255677    -0.0162298    -0.000769044  0.000102339   0.00145121    0.0038892     0.00710761    0.00973731    0.010745      0.0097375     0.007108      0.00388977    0.00145198    0.000103261   -0.000767991  0.001209      0.00165504    0.00200379    0.00248727    0.00299485    0.00341971    0.00383142    0.00411675    0.00434055    0.00447848    0.00434063    0.00411691    0.00383166    0.00342002    0.00299523    0.00248772    0.0020043     0.0016556     0.00120962   
0.9           -0.0169107    -0.0323424    -0.0487438    -1.79769e+307 -0.0487493    -0.0323397    -0.0169092    -0.0170981    -0.0260122    -0.032899     -1.79769e+307 -0.0328981    -0.0260112    -0.0170972    -0.00197628   -0.000997761  0.000433744   0.00312334    0.00691404    0.0100776     0.0112729     0.0100777     0.0069142     0.00312358    0.00043404    -0.000997424  -0.00197593   0.000961384   0.00145223    0.00181899    0.00235521    0.00293145    0.00338375    0.00383067    0.00414612    0.00439101    0.00454056    0.00439104    0.00414618    0.00383076    0.00338386    0.00293158    0.00235535    0.00181916    0.00145241    0.000961581  
1.2           -0.0179394    -0.0337975    -0.047375     -1.79769e+307 -0.047377     -0.0337948    -0.0179378    -0.0180318    -0.0266008    -0.0327366    -1.79769e+307 -0.0327354    -0.0265996    -0.0180306    -0.00302579   -0.00193177   -0.000435124  0.00255237    0.00708426    0.0110343     0.0125352     0.0110344     0.00708455    0.00255277    -0.000434645  -0.00193124   -0.00302526   0.000632733   0.00117672    0.00161367    0.00223457    0.00291034    0.00344942    0.00398158    0.00435258    0.00464373    0.00482431    0.00464377    0.00435267    0.00398171    0.00344959    0.00291053    0.0022348     0.00161393    0.001177      0.000633032  
1.5           -0.0190407    -0.0353939    -0.0441614    -1.79769e+307 -0.0441756    -0.0353956    -0.0190417    -0.0189889    -0.0272255    -0.0327268    -1.79769e+307 -0.0327287    -0.0272271    -0.01899      -0.00399076   -0.00294105   -0.00132823   0.00197717    0.00742777    0.012465      0.014404      0.0124648     0.0074275     0.00197683    -0.00132863   -0.00294145   -0.00399115   0.000348      0.000945418   0.00146369    0.0021745     0.00295842    0.00361084    0.00425418    0.00469746    0.00505258    0.00528164    0.00505255    0.00469739    0.00425408    0.00361071    0.00295826    0.00217431    0.00146348    0.000945206   0.000347775  
1.8           -0.0201929    -0.0372109    -0.0371578    -1.79769e+307 -0.0371599    -0.0372091    -0.020196     -0.0199134    -0.0278428    -0.032838     -1.79769e+307 -0.0328301    -0.0278416    -0.0199161    -0.00483568   -0.00389577   -0.00216374   0.00139596    0.00784045    0.0142522     0.016756      0.014252      0.00784022    0.00139571    -0.00216402   -0.00389602   -0.00483585   0.000144266   0.000798699   0.00140408    0.00220843    0.00310316    0.00388598    0.00465824    0.00518512    0.00561774    0.00590859    0.0056177     0.00518505    0.00465814    0.00388586    0.00310301    0.00220826    0.00140389    0.000798494   0.000144046  
2.1           -0.0212941    -0.0392192    -0.0269968    -1.79769e+307 -0.02709      -0.039253     -0.0213125    -0.0207117    -0.0283189    -0.0328546    -1.79769e+307 -0.032876     -0.0283386    -0.0207277    -0.0055994    -0.00472802   -0.00299618   0.000733523   0.00816854    0.0162263     0.0194093     0.0162248     0.00816564    0.000729435   -0.00300133   -0.00473392   -0.00560574   2.09919e-05   0.000732605   0.00142188    0.00232078    0.00332714    0.00424915    0.00516217    0.00578032    0.00630056    0.00666537    0.00630007    0.00577935    0.00516072    0.00424727    0.00332486    0.00231809    0.00141883    0.000729276   1.738e-05    
2.4           -0.0223013    -0.0414417    -0.0176912    -1.79769e+307 -0.0177307    -0.0414434    -0.0223029    -0.0213847    -0.0286789    -0.0328061    -1.79769e+307 -0.0328091    -0.0286826    -0.0213873    -0.00627148   -0.00544769   -0.00378601   -8.32686e-06  0.00835943    0.0183266     0.0222933     0.0183264     0.00835908    -8.86803e-06  -0.00378676   -0.00544859   -0.00627244   -1.11446e-05  0.000762276   0.00152994    0.00252635    0.00364724    0.0047139     0.00577794    0.0064939     0.00711107    0.00756446    0.007111      0.00649377    0.00577774    0.00471365    0.00364692    0.00252598    0.00152952    0.000761815   -1.16443e-05 
2.7           -0.0232186    -0.0439797    -0.0139437    -1.79769e+307 -0.0139399    -0.0439786    -0.023219     -0.0218727    -0.0288184    -0.0324959    -1.79769e+307 -0.0324978    -0.0288199    -0.0218735    -0.00683462   -0.00607073   -0.00451701   -0.000823149  0.00827086    0.0202728     0.0252506     0.0202728     0.00827082    -0.000823292  -0.00451725   -0.00607102   -0.00683492   3.62423e-05   0.000874269   0.00171325    0.00280766    0.00404602    0.00525407    0.00647417    0.00729289    0.00801509    0.00857075    0.00801507    0.00729284    0.00647411    0.00525398    0.00404592    0.00280754    0.00171311    0.000874122   3.60824e-05  
3             -0.0240156    -0.0467336    -0.0240788    -1.79769e+307 -0.0240345    -0.0467338    -0.0240168    -0.0221921    -0.0287823    -0.0319795    -1.79769e+307 -0.0319807    -0.0287828    -0.0221926    -0.00725543   -0.00656309   -0.00513965   -0.00161791   0.00789665    0.0219009     0.0279607     0.021901      0.00789677    -0.0016179    -0.00513975   -0.00656322   -0.00725558   0.00018007    0.00108629    0.00199463    0.00318818    0.00454901    0.00589305    0.00727105    0.00819733    0.00903145    0.00969735    0.00903144    0.00819731    0.00727102    0.00589302    0.00454896    0.00318812    0.00199456    0.0010862     0.000179978  
3.3           -0.024579     -0.0494866    -0.0547655    -1.79769e+307 -0.0547321    -0.0494808    -0.0245788    -0.0222822    -0.028487     -0.0311952    -1.79769e+307 -0.0312044    -0.0284923    -0.0222849    -0.00754217   -0.00694997   -0.00570166   -0.00250516   0.00718591    0.0231739     0.0303077     0.0231847     0.0071955     -0.00249957   -0.0056985    -0.00694806   -0.00754096   0.00038005    0.00134866    0.00232003    0.00360612    0.00508842    0.00655827    0.00809171    0.00913647    0.0100905     0.0108747     0.010091      0.00913732    0.00809293    0.00655959    0.00508972    0.00360742    0.00232125    0.00134975    0.00038102   
3.6           -0.0250258    -0.0523378    -0.106766     -1.79769e+307 -0.106693     -0.0523373    -0.0250276    -0.0222808    -0.0281093    -0.030371     -1.79769e+307 -0.0303738    -0.0281111    -0.0222821    -0.0077274    -0.00724266   -0.00618278   -0.00342261   0.00617441    0.0238435     0.0322131     0.0238437     0.00617464    -0.00342268   -0.00618308   -0.00724307   -0.00772788   0.000639189   0.00166857    0.00270589    0.00408518    0.00569184    0.00729152    0.00898849    0.0101615     0.011247      0.01217       0.0112469     0.0101615     0.0089884     0.0072914     0.00569169    0.004085      0.00270567    0.00166832    0.000638908  
3.9           -0.0252993    -0.0550264    -0.168944     -1.79769e+307 -0.168897     -0.055029     -0.0253023    -0.0221547    -0.0275928    -0.0293998    -1.79769e+307 -0.0294057    -0.0275975    -0.022158     -0.00781244   -0.00743966   -0.00659201   -0.00435535   0.00480781    0.0235711     0.0330756     0.0235713     0.00480789    -0.00435581   -0.00659285   -0.00744071   -0.00781361   0.000951526   0.00203547    0.00314169    0.00460891    0.00633009    0.00806206    0.00992468    0.0112272     0.0124451     0.0135091     0.012445      0.0112271     0.00992446    0.00806177    0.00632972    0.00460846    0.00314118    0.0020349     0.000950894  
4.2           -0.0255028    -0.0575468    -0.221129     -1.79769e+307 -0.221089     -0.0575468    -0.0255043    -0.0220414    -0.0271268    -0.0284509    -1.79769e+307 -0.0284534    -0.0271285    -0.0220426    -0.00788281   -0.00763607   -0.00704218   -0.00535445   0.00315889    0.0225881     0.0329875     0.0225886     0.0031593     -0.00535452   -0.00704244   -0.00763641   -0.00788319   0.00123721    0.00236295    0.00353657    0.0050792     0.00689818    0.00875818    0.0107839     0.0122257     0.0135777     0.0147665     0.0135777     0.0122256     0.0107838     0.00875809    0.00689807    0.00507906    0.00353641    0.00236276    0.001237     
4.5           -0.0256673    -0.0595542    -0.239129     -1.79769e+307 -0.239086     -0.0595453    -0.0256621    -0.0219895    -0.0267606    -0.0275672    -1.79769e+307 -0.0275547    -0.0267494    -0.0219815    -0.00795085   -0.00784543   -0.00751936   -0.00635443   0.00144843    0.0210592     0.0320638     0.0210606     0.00145048    -0.00635203   -0.00751644   -0.00784223   -0.00794754   0.00148763    0.00264428    0.0038775     0.00548405    0.00738588    0.00937094    0.0115584     0.0131433     0.014635      0.0159427     0.0146353     0.0131438     0.0115592     0.00937195    0.00738709    0.00548546    0.00387909    0.00264598    0.00148945   
4.8           -0.0255837    -0.0598635    -0.199844     -1.79769e+307 -0.199905     -0.0598591    -0.0255798    -0.021957     -0.0264793    -0.026714     -1.79769e+307 -0.0267164    -0.0264799    -0.0219563    -0.00800706   -0.00804697   -0.00797666   -0.00729875   -0.000173071  0.01931       0.0306603     0.0193106     -0.000172608  -0.00729814   -0.00797601   -0.00804641   -0.00800653   0.00169567    0.00287596    0.00415505    0.00581106    0.00777699    0.00987502    0.0122092     0.0139356     0.0155652     0.0169902     0.0155653     0.0139357     0.0122093     0.00987526    0.00777729    0.00581139    0.00415542    0.00287634    0.00169608   
5.1           -0.0254335    -0.0581152    -0.123762     -1.79769e+307 -0.123828     -0.0580894    -0.0254211    -0.0220317    -0.0263895    -0.0259932    -1.79769e+307 -0.0259968    -0.026389     -0.0220281    -0.00811833   -0.00830712   -0.00848211   -0.00824817   -0.00175871   0.0173467     0.0288529     0.0173474     -0.00175748   -0.00824666   -0.0084807    -0.00830575   -0.00811691   0.0018405     0.0030353     0.00434478    0.00603939    0.0080581     0.0102561     0.0127235     0.0145956     0.0163536     0.0178832     0.0163538     0.0145959     0.012724      0.0102567     0.00805883    0.00604022    0.0043457     0.00303627    0.00184154   
5.4           -0.0255666    -0.0554349    -0.0760477    -1.79769e+307 -0.0758864    -0.0554071    -0.0255561    -0.0222488    -0.0263899    -0.0251117    -1.79769e+307 -0.025118     -0.026391     -0.0222464    -0.00827989   -0.00860298   -0.00898579   -0.00911912   -0.00323544   0.0153102     0.0268124     0.0153108     -0.00323396   -0.00911798   -0.00898492   -0.0086021    -0.00827892   0.00193206    0.00313576    0.00446507    0.00619203    0.00825616    0.0105405     0.0131273     0.015143      0.0170262     0.0186406     0.0170263     0.0151433     0.0131277     0.0105411     0.00825678    0.00619272    0.0044658     0.00313653    0.00193287   
5.7           -0.0261128    -0.0534849    -0.0520221    -1.79769e+307 -0.0518091    -0.0534426    -0.0260987    -0.0226084    -0.0263865    -0.0237203    -1.79769e+307 -0.0237283    -0.0263872    -0.0226044    -0.00847605   -0.00889996   -0.00943868   -0.00983207   -0.00443475   0.0135138     0.0247771     0.0135142     -0.0044337    -0.0098313    -0.0094378    -0.00889886   -0.00847474   0.00197706    0.00318955    0.00453347    0.00628912    0.00839547    0.0107536     0.0134443     0.0155991     0.017606      0.0192785     0.0176062     0.0155995     0.0134449     0.0107543     0.00839626    0.00628999    0.00453441    0.00319055    0.00197813   
6             -0.0267416    -0.0524123    -0.0272717    -1.79769e+307 -0.0271115    -0.0523647    -0.0267286    -0.0231575    -0.0266898    -0.0221101    -1.79769e+307 -0.0221235    -0.0266947    -0.0231562    -0.00877322   -0.00927888   -0.00994141   -0.010523     -0.00553688   0.0117309     0.0226453     0.0117303     -0.00553765   -0.0105236    -0.0099417    -0.00927893   -0.00877305   0.00192697    0.00314646    0.00449922    0.00627984    0.00842435    0.0108446     0.0136241     0.0159076     0.018035      0.0197539     0.0180352     0.0159078     0.0136244     0.010845      0.00842468    0.00628019    0.00449959    0.00314686    0.00192741   
6.3           -0.0271679    -0.0520439    -0.0356558    -1.79769e+307 -0.0355039    -0.0519997    -0.0271563    -0.0237378    -0.0272695    -0.0201165    -1.79769e+307 -0.0201399    -0.0272831    -0.0237414    -0.0091143    -0.00968949   -0.0104576    -0.0111927    -0.00651218   0.0100815     0.0205882     0.0100796     -0.00651422   -0.0111947    -0.0104595    -0.00969131   -0.00911599   0.00181747    0.00304278    0.00440036    0.00620175    0.00837991    0.0108514     0.0137056     0.0161061     0.0183461     0.0200968     0.018346      0.016106      0.0137055     0.0108511     0.00837953    0.00620128    0.00439983    0.00304223    0.0018169    
6.6           -0.0275719    -0.0529846    -0.0536971    -1.79769e+307 -0.0534627    -0.0529467    -0.0275619    -0.0242706    -0.0280575    -0.0174148    -1.79769e+307 -0.0174261    -0.0280659    -0.0242709    -0.00943653   -0.010064     -0.0109127    -0.0117667    -0.00732859   0.00863952    0.0187226     0.0086377     -0.00732962   -0.0117674    -0.0109134    -0.0100645    -0.00943691   0.00168785    0.00291951    0.00428058    0.00609988    0.00830901    0.010822      0.0137389     0.0162463     0.018588      0.020355      0.018588      0.0162464     0.013739      0.010822      0.00830903    0.00609987    0.00428057    0.00291951    0.00168787   
6.9           -0.0273338    -0.0535566    -0.0755902    -1.79769e+307 -0.0753104    -0.053519     -0.0273231    -0.024794     -0.0294642    -0.0146521    -1.79769e+307 -0.0146771    -0.0294861    -0.0247997    -0.00978947   -0.010466     -0.0113841    -0.0123291    -0.00807769   0.00730289    0.0169706     0.00730065    -0.00807968   -0.0123315    -0.0113868    -0.0104687    -0.00979207   0.00150094    0.00273584    0.00409645    0.00592819    0.00816334    0.0107058     0.0136719     0.0162756     0.0187042     0.0204724     0.0187041     0.0162753     0.0136715     0.0107052     0.0081626     0.00592731    0.00409547    0.00273483    0.00149988   
7.2           -0.0273798    -0.0556304    -0.128378     -1.79769e+307 -0.128032     -0.0555629    -0.0273568    -0.0254832    -0.0316644    -0.0129679    -1.79769e+307 -0.0130164    -0.0316932    -0.025485     -0.0102218    -0.0109411    -0.0119164    -0.0129223    -0.00879648   0.00599682    0.0151996     0.00599501    -0.00879836   -0.0129244    -0.0119185    -0.010943     -0.0102234    0.00123046    0.0024675     0.00382669    0.00566869    0.00792857    0.0104922     0.0134979     0.0161911     0.0186919     0.0204509     0.0186919     0.016191      0.0134976     0.0104919     0.00792824    0.00566831    0.00382631    0.00246719    0.0012302    
7.5           -0.0284216    -0.0604832    -0.197208     -1.79769e+307 -0.197101     -0.0604463    -0.0283885    -0.0262733    -0.0343544    -0.0156231    -1.79769e+307 -0.0158239    -0.0343778    -0.0262302    -0.0106237    -0.0113502    -0.0123414    -0.0133551    -0.0092748    0.00504318    0.0138634     0.00504206    -0.00927558   -0.013355     -0.0123398    -0.0113465    -0.0106181    0.00094996    0.00219126    0.00355143    0.00540361    0.00768831    0.0102632     0.0132946     0.0160767     0.018628      0.0203435     0.0186284     0.0160776     0.0132957     0.0102647     0.00769036    0.00540613    0.00355447    0.00219484    0.000954077  
7.8           -0.0296657    -0.0649563    -0.217074     -1.79769e+307 -0.216919     -0.0649161    -0.0296544    -0.0270904    -0.0377585    -0.0313934    -1.79769e+307 -0.0316108    -0.0377996    -0.027092     -0.011075     -0.0117979    -0.0127769    -0.0137658    -0.00968206   0.00424957    0.0126595     0.00424872    -0.00968286   -0.0137666    -0.0127778    -0.0117987    -0.0110755    0.00063379    0.00187794    0.00323808    0.0050994     0.00740923    0.00998764    0.0130368     0.0159055     0.0184922     0.0201572     0.0184922     0.0159054     0.0130366     0.00998748    0.0074091     0.00509926    0.00323797    0.00187788    0.000633764  
8.1           -0.0311286    -0.0679605    -0.17741      -1.79769e+307 -0.177198     -0.0679131    -0.0310974    -0.0279178    -0.0411414    -0.0605046    -1.79769e+307 -0.061393     -0.0410591    -0.02786      -0.0114742    -0.0121553    -0.0130722    -0.0139791    -0.00983826   0.0037903     0.0118097     0.00378864    -0.00984033   -0.0139809    -0.0130725    -0.0121534    -0.01147      0.000375177   0.00162693    0.00299277    0.00486743    0.00720462    0.00978611    0.0128492     0.0157979     0.0184064     0.0200193     0.0184066     0.0157984     0.0128499     0.00978717    0.00720616    0.00486942    0.00299529    0.00163003    0.000378856  
8.4           -0.0325647    -0.0702032    -0.143025     -1.79769e+307 -0.142742     -0.0701122    -0.0325402    -0.0284881    -0.0424499    -0.0867513    -1.79769e+307 -0.0869129    -0.0425786    -0.028511     -0.0117785    -0.0124003    -0.0132312    -0.0140062    -0.00976226   0.00365031    0.011308      0.00364899    -0.00976482   -0.0140104    -0.0132371    -0.0124074    -0.011786     0.000193235   0.00145733    0.00283381    0.00472421    0.00708831    0.00967297    0.0127467     0.0157648     0.0183832     0.019944      0.0183826     0.0157638     0.0127452     0.00967102    0.00708604    0.00472157    0.00283087    0.00145421    0.000189906  
8.7           -0.0340248    -0.0730331    -0.14258      -1.79769e+307 -0.142234     -0.0729637    -0.0340211    -0.0289136    -0.0404858    -0.0780595    -1.79769e+307 -0.0776019    -0.0406571    -0.0289666    -0.0119443    -0.0125012    -0.0132332    -0.0138309    -0.00943268   0.00386189    0.0111849     0.0038622     -0.0094329    -0.0138329    -0.0132381    -0.0125088    -0.0119539    8.71805e-05   0.00137305    0.00276749    0.00467913    0.00707225    0.0096636     0.0127486     0.0158243     0.0184463     0.0199597     0.0184457     0.015823      0.0127467     0.00966114    0.00706921    0.00467548    0.00276324    0.00136824    8.18028e-05  
9             -0.0355007    -0.0775854    -0.163194     -1.79769e+307 -0.162701     -0.0774933    -0.0354776    -0.0291749    -0.0366558    -0.0407451    -1.79769e+307 -0.0404102    -0.0366352    -0.0291746    -0.0119986    -0.012482     -0.0131059    -0.0134958    -0.00889198   0.00436377    0.0113946     0.00436426    -0.00889199   -0.0134974    -0.013109     -0.0124853    -0.0120015    6.51546e-05   0.00137825    0.00279283    0.00472765    0.00714997    0.00974922    0.0128453     0.0159661     0.0185847     0.0200563     0.0185844     0.0159656     0.0128446     0.00974843    0.00714915    0.00472675    0.00279189    0.00137734    6.42507e-05  
9.3           -0.0365633    -0.0834138    -0.193946     -1.79769e+307 -0.193737     -0.083321     -0.0365515    -0.0289637    -0.0325652    -0.0154443    -1.79769e+307 -0.0153634    -0.0325638    -0.0289728    -0.0119635    -0.0124225    -0.0129917    -0.0132215    -0.00840252   0.00486905    0.0116272     0.00487014    -0.00840236   -0.013224     -0.0129965    -0.012428     -0.0119691    7.0599e-05    0.00140364    0.00282942    0.00477539    0.00721473    0.00981108    0.0129092     0.0160587     0.0186652     0.0200962     0.0186648     0.0160578     0.0129079     0.00980954    0.00721299    0.00477339    0.00282723    0.00140131    6.81265e-05  
9.6           -0.0362934    -0.088243     -0.217849     -1.79769e+307 -0.217465     -0.0881442    -0.0362761    -0.0279537    -0.0288334    -0.0101872    -1.79769e+307 -0.0101548    -0.0287755    -0.0279256    -0.0120522    -0.0126001    -0.0132856    -0.0135511    -0.00858419   0.00473055    0.0111983     0.00473405    -0.00858077   -0.0135499    -0.013284     -0.012596     -0.0120459    -4.58669e-05  0.00126792    0.00266903    0.00458711    0.00700691    0.00956571    0.0126386     0.0157935     0.0183739     0.0197623     0.0183741     0.015794      0.0126394     0.00956702    0.0070088     0.00458952    0.00267198    0.00127137    -4.19343e-05 
9.9           -0.0342436    -0.0889771    -0.205451     -1.79769e+307 -0.205746     -0.0889445    -0.0342411    -0.025974     -0.025073     -0.00882441   -1.79769e+307 -0.00875937   -0.0250178    -0.0259496    -0.0123646    -0.0131724    -0.0142397    -0.0148899    -0.00985614   0.00358263    0.00977335    0.00358662    -0.00985339   -0.0148887    -0.0142346    -0.0131646    -0.0123559    -0.000372394  0.00086201    0.0021847     0.00402017    0.00636925    0.00884053    0.0118501     0.0149854     0.0175232     0.0188661     0.0175234     0.014986      0.0118512     0.00884217    0.00637169    0.00402328    0.00218846    0.000866213   -0.000367744 
10.2          -0.0316614    -0.0855309    -0.171195     -1.79769e+307 -0.171666     -0.0855499    -0.0316711    -0.0237565    -0.0218023    -0.00746365   -1.79769e+307 -0.00742358   -0.0217711    -0.0237446    -0.0126117    -0.0137382    -0.015294     -0.0165905    -0.0114529    0.00244279    0.00848439    0.00243978    -0.0114637    -0.0166033    -0.0152994    -0.013739     -0.0126108    -0.000636134  0.000493628   0.00171683    0.00344869    0.00570514    0.00806352    0.0109912     0.0140971     0.0165893     0.0178936     0.0165884     0.0140955     0.010989      0.00806154    0.00570375    0.00344754    0.00171609    0.000493228   -0.000636186 
10.5          -0.0305979    -0.0815641    -0.137674     -1.79769e+307 -0.138174     -0.0816573    -0.0306299    -0.0227934    -0.02071      -0.00817235   -1.79769e+307 -0.00821687   -0.0207365    -0.0228111    -0.0122584    -0.0135197    -0.0152785    -0.0171005    -0.0116608    0.00320418    0.00937209    0.00319984    -0.0116758    -0.0171167    -0.0152873    -0.0135272    -0.0122655    -0.000350182  0.000731226   0.00190877    0.00358979    0.00579661    0.00807656    0.0109422     0.0140276     0.0164902     0.017778      0.0164885     0.0140246     0.0109381     0.00807242    0.0057927     0.00358556    0.00190439    0.000726636   -0.000354933 
10.8          -0.0308243    -0.0759264    -0.119784     -1.79769e+307 -0.119676     -0.076013     -0.0308409    -0.0235996    -0.022634     -0.0120738    -1.79769e+307 -0.0120858    -0.0226345    -0.0235963    -0.0112617    -0.0122969    -0.0137979    -0.0158787    -0.010252     0.00542826    0.0118348     0.00542559    -0.0102584    -0.0158825    -0.0137944    -0.0122945    -0.0112617    0.000468602   0.00157843    0.00278471    0.00447595    0.00667252    0.00890697    0.0117115     0.0147541     0.0171789     0.0184569     0.017178      0.0147531     0.0117106     0.00890676    0.00667301    0.00447659    0.00278533    0.0015787     0.000468666  
11.1          -0.0309524    -0.0690213    -0.113849     -1.79769e+307 -0.113759     -0.0690639    -0.0309427    -0.0246836    -0.0246805    -0.0143381    -1.79769e+307 -0.0143295    -0.0246684    -0.0246691    -0.0102902    -0.0109307    -0.0121336    -0.0147632    -0.00922563   0.00614497    0.0124954     0.00614279    -0.00922188   -0.0147591    -0.0121161    -0.0109147    -0.0102783    0.00120673    0.00235877    0.00360901    0.00530421    0.00745782    0.00962744    0.0123199     0.0152411     0.0175755     0.0188188     0.0175762     0.0152434     0.0123242     0.00963361    0.00746512    0.00531251    0.00361758    0.00236688    0.00121467   
11.4          -0.0311566    -0.0647467    -0.11032      -1.79769e+307 -0.110368     -0.0647883    -0.0311422    -0.0254227    -0.025299     -0.0125184    -1.79769e+307 -0.0125204    -0.0252819    -0.0254044    -0.0099988    -0.0104044    -0.0113595    -0.0147077    -0.00933875   0.00478688    0.0106058     0.00478435    -0.00933287   -0.0147025    -0.0113503    -0.0103974    -0.00999225   0.00162244    0.00282921    0.00414555    0.00586526    0.00797794    0.0101105     0.0126778     0.0154135     0.0176255     0.0188194     0.0176273     0.0154177     0.0126852     0.0101197     0.00798739    0.00587527    0.00415516    0.00283782    0.00163055   
11.7          -0.0311731    -0.0597473    -0.0813948    -1.79769e+307 -0.0818841    -0.0598314    -0.0311661    -0.026294     -0.0258927    -0.00924704   -1.79769e+307 -0.00928453   -0.0258797    -0.0262781    -0.0105063    -0.011191     -0.0120309    -0.0162501    -0.0110284    0.0024478     0.00746121    0.00243934    -0.0110501    -0.0162835    -0.0120461    -0.0112025    -0.0105116    0.00179139    0.00307849    0.00449938    0.00632448    0.0084828     0.0107027     0.0132173     0.0157563     0.0178661     0.0190296     0.0178682     0.0157608     0.0132253     0.0107115     0.00849009    0.00633117    0.00450462    0.0030825     0.00179463   
12            -0.031201     -0.0546254    -0.0434744    -1.79769e+307 -0.0440404    -0.0547442    -0.0312282    -0.0276108    -0.0277985    -0.00674811   -1.79769e+307 -0.0067834    -0.0277802    -0.0276078    -0.0113269    -0.0125415    -0.0140687    -0.0198032    -0.0154274    -0.000525634  0.0038432     -0.000554843  -0.015508     -0.0198615    -0.0140978    -0.0125546    -0.0113338    0.0017741     0.0031479     0.00465663    0.00666033    0.00899123    0.0114672     0.0140592     0.0164254     0.0184891     0.019683      0.0184916     0.0164301     0.0140674     0.0114754     0.0089964     0.00666384    0.00465833    0.00314882    0.00177416   
12.3          -0.0308779    -0.0504379    -0.0447503    -1.79769e+307 -0.0445089    -0.050543     -0.0309198    -0.0288101    -0.0306622    -0.00515      -1.79769e+307 -0.00509489   -0.0306127    -0.0288064    -0.0120133    -0.0137102    -0.0164094    -0.0232202    -0.0231975    -0.0063952    -0.000980534  -0.00643793   -0.0232699    -0.0232387    -0.0164175    -0.0137109    -0.0120117    0.00154581    0.00296028    0.00447331    0.00659452    0.00915987    0.0119863     0.01472       0.0169726     0.0190558     0.0203167     0.0190583     0.0169766     0.0147266     0.0119918     0.0091622     0.00659433    0.00447248    0.00295998    0.00154528   