# Probe 0 (0.5 -1.5 0.05)
# Probe 1 (0.5 -1 0.05)
# Probe 2 (0.5 -0.5 0.05)
# Probe 3 (0.5 0 0.05)
# Probe 4 (0.5 0.5 0.05)
# Probe 5 (0.5 1 0.05)
# Probe 6 (0.5 1.5 0.05)
# Probe 7 (1.5 -1.5 0.05)
# Probe 8 (1.5 -1 0.05)
# Probe 9 (1.5 -0.5 0.05)
# Probe 10 (1.5 0 0.05)
# Probe 11 (1.5 0.5 0.05)
# Probe 12 (1.5 1 0.05)
# Probe 13 (1.5 1.5 0.05)
# Probe 14 (3 -1.5 0.05)
# Probe 15 (3 -1.25 0.05)
# Probe 16 (3 -1 0.05)
# Probe 17 (3 -0.75 0.05)
# Probe 18 (3 -0.5 0.05)
# Probe 19 (3 -0.25 0.05)
# Probe 20 (3 0 0.05)
# Probe 21 (3 0.25 0.05)
# Probe 22 (3 0.5 0.05)
# Probe 23 (3 0.75 0.05)
# Probe 24 (3 1 0.05)
# Probe 25 (3 1.25 0.05)
# Probe 26 (3 1.5 0.05)
# Probe 27 (4 -1.5 0.05)
# Probe 28 (4 -1.333 0.05)
# Probe 29 (4 -1.167 0.05)
# Probe 30 (4 -1 0.05)
# Probe 31 (4 -0.833 0.05)
# Probe 32 (4 -0.667 0.05)
# Probe 33 (4 -0.5 0.05)
# Probe 34 (4 -0.333 0.05)
# Probe 35 (4 -0.167 0.05)
# Probe 36 (4 0 0.05)
# Probe 37 (4 0.167 0.05)
# Probe 38 (4 0.333 0.05)
# Probe 39 (4 0.5 0.05)
# Probe 40 (4 0.667 0.05)
# Probe 41 (4 0.833 0.05)
# Probe 42 (4 1 0.05)
# Probe 43 (4 1.167 0.05)
# Probe 44 (4 1.333 0.05)
# Probe 45 (4 1.5 0.05)
# Time        0             1             2             3             4             5             6             7             8             9             10            11            12            13            14            15            16            17            18            19            20            21            22            23            24            25            26            27            28            29            30            31            32            33            34            35            36            37            38            39            40            41            42            43            44            45           
0             (0 0 0)       (0 0 0)       (0 0 0)       (-1.79769e+307 -1.79769e+307 -1.79769e+307) (0 0 0)       (0 0 0)       (0 0 0)       (0 0 0)       (0 0 0)       (0 0 0)       (-1.79769e+307 -1.79769e+307 -1.79769e+307) (0 0 0)       (0 0 0)       (0 0 0)       (0 0 0)       (0 0 0)       (0 0 0)       (0 0 0)       (0 0 0)       (0 0 0)       (0 0 0)       (0 0 0)       (0 0 0)       (0 0 0)       (0 0 0)       (0 0 0)       (0 0 0)       (0 0 0)       (0 0 0)       (0 0 0)       (0 0 0)       (0 0 0)       (0 0 0)       (0 0 0)       (0 0 0)       (0 0 0)       (0 0 0)       (0 0 0)       (0 0 0)       (0 0 0)       (0 0 0)       (0 0 0)       (0 0 0)       (0 0 0)       (0 0 0)       (0 0 0)      
0.3           (0.456702 -0.0236897 1.16851e-23) (0.485667 -0.0297179 -1.94463e-23) (0 0 0)       (-1.79769e+307 -1.79769e+307 -1.79769e+307) (0 0 0)       (0.48567 0.0297135 -3.0634e-23) (0.456703 0.0236887 -5.12195e-23) (0.457108 0.0197134 -9.2782e-24) (0.485151 0.0244004 -3.27784e-24) (0 0 0)       (-1.79769e+307 -1.79769e+307 -1.79769e+307) (0 0 0)       (0.48515 -0.0244012 -3.47868e-23) (0.457107 -0.0197141 1.55735e-24) (0.402474 0.037109 3.40056e-22) (0.394772 0.0429362 -2.00088e-23) (0.382208 0.0479929 3.83303e-22) (0.364434 0.0494291 -2.7468e-23) (0.346413 0.0417678 3.35187e-22) (0.330297 0.0245047 6.46105e-23) (0.322968 2.73432e-07 0) (0.330297 -0.0245042 -3.65073e-23) (0.346413 -0.0417674 -2.78231e-22) (0.364433 -0.0494288 2.74691e-23) (0.382208 -0.0479926 -4.07058e-22) (0.394771 -0.042936 2.04251e-23) (0.402474 -0.0371089 -2.77165e-22) (0.390999 0.0180686 0) (0.388645 0.0179472 0) (0.386197 0.0178572 0) (0.383468 0.0169114 0) (0.380776 0.015091 0) (0.378011 0.0134416 0) (0.375531 0.0109462 0) (0.374011 0.00739621 0) (0.37268 0.00384695 0) (0.371753 1.19786e-07 0) (0.37268 -0.00384672 0) (0.374011 -0.00739599 0) (0.375531 -0.010946 0) (0.378011 -0.0134414 0) (0.380776 -0.0150908 0) (0.383468 -0.0169112 0) (0.386197 -0.0178571 0) (0.388645 -0.0179471 0) (0.390999 -0.0180685 0)
0.6           (0.456774 -0.0241795 1.35173e-23) (0.485133 -0.0288401 -2.10874e-23) (0 0 0)       (-1.79769e+307 -1.79769e+307 -1.79769e+307) (0 0 0)       (0.48514 0.0288393 -3.32377e-23) (0.456775 0.0241797 -5.57848e-23) (0.457303 0.0181158 -1.04264e-23) (0.483666 0.0215449 -3.46876e-24) (0 0 0)       (-1.79769e+307 -1.79769e+307 -1.79769e+307) (0 0 0)       (0.483666 -0.0215458 -3.6988e-23) (0.457303 -0.0181164 1.70662e-24) (0.403848 0.0400124 -1.46293e-22) (0.395477 0.0460032 -7.75931e-24) (0.382631 0.0518109 2.30673e-22) (0.363797 0.0546891 -2.33486e-23) (0.34294 0.047096 3.28158e-22) (0.324169 0.0280238 6.4714e-23) (0.315442 2.16363e-07 0) (0.324169 -0.0280235 -3.64342e-23) (0.34294 -0.0470956 -2.71611e-22) (0.363796 -0.0546888 2.3352e-23) (0.38263 -0.0518108 -2.45615e-22) (0.395477 -0.0460031 2.00205e-24) (0.403848 -0.0400124 -2.11048e-23) (0.390836 0.0189742 0) (0.388326 0.0189944 0) (0.38575 0.0190167 0) (0.382811 0.0181184 0) (0.379898 0.0162467 0) (0.376909 0.0145685 0) (0.374192 0.0119289 0) (0.372538 0.00807196 0) (0.371047 0.00420956 0) (0.369993 7.66894e-08 0) (0.371047 -0.00420942 0) (0.372538 -0.00807183 0) (0.374192 -0.0119287 0) (0.376909 -0.0145684 0) (0.379898 -0.0162466 0) (0.382811 -0.0181183 0) (0.385749 -0.0190166 0) (0.388326 -0.0189944 0) (0.390836 -0.0189742 0)
0.9           (0.457115 -0.0243935 1.4434e-23) (0.485049 -0.0266763 -2.20946e-23) (0 0 0)       (-1.79769e+307 -1.79769e+307 -1.79769e+307) (0 0 0)       (0.485056 0.026682 -3.4831e-23) (0.457116 0.0243946 -5.85958e-23) (0.45739 0.0168396 -1.09728e-23) (0.482002 0.0191938 -3.51422e-24) (0 0 0)       (-1.79769e+307 -1.79769e+307 -1.79769e+307) (0 0 0)       (0.482002 -0.019195 -3.76005e-23) (0.45739 -0.0168402 1.79504e-24) (0.403452 0.0431857 -6.64228e-22) (0.396609 0.0483033 4.45445e-24) (0.383473 0.0557 6.97929e-23) (0.363525 0.0605025 -1.76893e-23) (0.339466 0.0535961 3.23202e-22) (0.317221 0.0324997 6.66048e-23) (0.306577 2.20337e-07 0) (0.317221 -0.0324993 -3.71246e-23) (0.339466 -0.0535957 -2.66562e-22) (0.363525 -0.0605022 1.76907e-23) (0.383472 -0.0556999 -7.40315e-23) (0.396609 -0.0483033 -1.51206e-23) (0.403452 -0.0431858 3.24021e-22) (0.390828 0.0198936 0) (0.388071 0.0201085 0) (0.385365 0.0202723 0) (0.382163 0.019453 0) (0.378947 0.0175627 0) (0.37572 0.015846 0) (0.37273 0.0130438 0) (0.370917 0.00884993 0) (0.36924 0.00462658 0) (0.368032 6.59576e-08 0) (0.36924 -0.00462646 0) (0.370917 -0.00884982 0) (0.37273 -0.0130437 0) (0.37572 -0.015846 0) (0.378947 -0.0175626 0) (0.382163 -0.019453 0) (0.385365 -0.0202723 0) (0.388071 -0.0201085 0) (0.390828 -0.0198936 0)
1.2           (0.457705 -0.0244658 1.54144e-23) (0.485765 -0.0236661 -2.33236e-23) (0 0 0)       (-1.79769e+307 -1.79769e+307 -1.79769e+307) (0 0 0)       (0.485766 0.023675 -3.66779e-23) (0.457706 0.0244675 -6.21079e-23) (0.457394 0.0158065 -1.1529e-23) (0.480227 0.017244 -3.58226e-24) (0 0 0)       (-1.79769e+307 -1.79769e+307 -1.79769e+307) (0 0 0)       (0.480227 -0.0172456 -3.84308e-23) (0.457394 -0.0158071 1.89603e-24) (0.403833 0.0446212 -1.12408e-21) (0.397492 0.0506302 1.49487e-23) (0.384853 0.0592885 -6.74676e-23) (0.363729 0.0666751 -1.2665e-23) (0.336053 0.0611145 3.36153e-22) (0.309528 0.037915 7.25311e-23) (0.296431 2.47638e-07 0) (0.309528 -0.0379146 -4.00099e-23) (0.336053 -0.0611141 -2.76745e-22) (0.363728 -0.0666748 1.26675e-23) (0.384852 -0.0592885 7.29687e-23) (0.397492 -0.0506302 -2.86752e-23) (0.403833 -0.0446213 6.3587e-22) (0.391048 0.0207901 0) (0.387966 0.0212201 0) (0.385081 0.0215603 0) (0.381577 0.0208424 0) (0.378001 0.0189623 0) (0.374493 0.0172133 0) (0.371189 0.0142504 0) (0.369189 0.00970049 0) (0.367304 0.00508473 0) (0.365923 6.6663e-08 0) (0.367303 -0.00508461 0) (0.369189 -0.00970038 0) (0.371189 -0.0142503 0) (0.374493 -0.0172133 0) (0.378001 -0.0189623 0) (0.381577 -0.0208423 0) (0.385081 -0.0215603 0) (0.387966 -0.0212201 0) (0.391048 -0.0207901 0)
1.5           (0.458516 -0.0244472 1.63987e-23) (0.487545 -0.0199357 -2.48101e-23) (0 0 0)       (-1.79769e+307 -1.79769e+307 -1.79769e+307) (0 0 0)       (0.487543 0.0199442 -3.87486e-23) (0.458516 0.0244491 -6.59297e-23) (0.457332 0.015007 -1.20891e-23) (0.478415 0.0157164 -3.65665e-24) (0 0 0)       (-1.79769e+307 -1.79769e+307 -1.79769e+307) (0 0 0)       (0.478416 -0.0157186 -3.93257e-23) (0.457333 -0.0150076 2.00182e-24) (0.405111 0.0449939 -1.5232e-21) (0.398362 0.0527585 2.58939e-23) (0.386707 0.0625594 -2.1181e-22) (0.364632 0.0729069 -7.30644e-24) (0.332839 0.0695627 3.58938e-22) (0.301201 0.0443268 8.14218e-23) (0.285035 2.94966e-07 0) (0.301201 -0.0443262 -4.44471e-23) (0.332838 -0.0695622 -2.95385e-22) (0.364631 -0.0729067 7.30446e-24) (0.386706 -0.0625594 2.26861e-22) (0.398362 -0.0527586 -4.25972e-23) (0.40511 -0.044994 8.93561e-22) (0.391434 0.0216991 0) (0.388051 0.0223013 0) (0.384894 0.0228511 0) (0.381068 0.0222432 0) (0.377103 0.0203864 0) (0.373267 0.018622 0) (0.369612 0.0155079 0) (0.367399 0.0105918 0) (0.365295 0.00556934 0) (0.363723 7.31042e-08 0) (0.365295 -0.00556921 0) (0.367399 -0.0105916 0) (0.369612 -0.0155078 0) (0.373266 -0.018622 0) (0.377103 -0.0203863 0) (0.381068 -0.0222432 0) (0.384894 -0.0228511 0) (0.388051 -0.0223013 0) (0.391434 -0.0216991 0)
1.8           (0.459505 -0.0243497 1.7394e-23) (0.489794 -0.0162403 -2.65648e-23) (0 0 0)       (-1.79769e+307 -1.79769e+307 -1.79769e+307) (0 0 0)       (0.489789 0.0162488 -4.1081e-23) (0.459504 0.0243515 -6.99472e-23) (0.457223 0.0143985 -1.26295e-23) (0.476614 0.0145805 -3.73185e-24) (0 0 0)       (-1.79769e+307 -1.79769e+307 -1.79769e+307) (0 0 0)       (0.476616 -0.0145832 -4.02088e-23) (0.457225 -0.014399 2.1046e-24) (0.40654 0.0452345 -1.85761e-21) (0.400005 0.0538674 3.65829e-23) (0.388608 0.0657734 -3.44996e-22) (0.366281 0.0790945 -1.66312e-24) (0.330032 0.0789298 3.87028e-22) (0.292329 0.051849 9.23323e-23) (0.272368 3.63751e-07 0) (0.292329 -0.0518482 -4.99867e-23) (0.330031 -0.0789292 -3.19185e-22) (0.36628 -0.0790942 1.66203e-24) (0.388607 -0.0657735 3.69586e-22) (0.400004 -0.0538676 -5.63257e-23) (0.40654 -0.0452347 1.10221e-21) (0.391849 0.0226965 0) (0.388269 0.0233928 0) (0.384786 0.0241434 0) (0.380625 0.0236408 0) (0.376269 0.0218083 0) (0.372062 0.0200516 0) (0.368028 0.0168001 0) (0.365576 0.0115079 0) (0.36325 0.0060727 0) (0.361472 8.82273e-08 0) (0.36325 -0.00607254 0) (0.365576 -0.0115078 0) (0.368028 -0.0167999 0) (0.372062 -0.0200516 0) (0.376269 -0.0218083 0) (0.380625 -0.0236408 0) (0.384786 -0.0241434 0) (0.388269 -0.0233928 0) (0.391849 -0.0226966 0)
2.1           (0.46073 -0.0240056 1.83172e-23) (0.49274 -0.012869 -2.86561e-23) (0 0 0)       (-1.79769e+307 -1.79769e+307 -1.79769e+307) (0 0 0)       (0.492732 0.0128778 -4.36474e-23) (0.460728 0.0240071 -7.38737e-23) (0.457082 0.0139348 -1.30955e-23) (0.47484 0.0137875 -3.78908e-24) (0 0 0)       (-1.79769e+307 -1.79769e+307 -1.79769e+307) (0 0 0)       (0.474843 -0.0137905 -4.09241e-23) (0.457084 -0.013935 2.19506e-24) (0.407911 0.0455037 -2.16058e-21) (0.401794 0.0547382 4.61921e-23) (0.390863 0.068519 -4.72321e-22) (0.368588 0.0851488 5.2736e-24) (0.32804 0.0891866 4.13738e-22) (0.282923 0.0607358 1.03842e-22) (0.258338 4.40803e-07 0) (0.282922 -0.0607348 -5.59453e-23) (0.328039 -0.0891858 -3.43097e-22) (0.368588 -0.0851485 -5.29769e-24) (0.390863 -0.0685191 5.08425e-22) (0.401794 -0.0547385 -6.90422e-23) (0.407911 -0.045504 1.29336e-21) (0.392199 0.0238035 0) (0.388503 0.0245393 0) (0.384709 0.0254342 0) (0.380237 0.0250211 0) (0.375497 0.0232124 0) (0.370895 0.0214877 0) (0.366457 0.0181172 0) (0.363746 0.012442 0) (0.3612 0.00658899 0) (0.359204 1.07927e-07 0) (0.3612 -0.00658879 0) (0.363746 -0.0124418 0) (0.366457 -0.018117 0) (0.370895 -0.0214876 0) (0.375497 -0.0232123 0) (0.380237 -0.0250211 0) (0.384709 -0.0254342 0) (0.388503 -0.0245394 0) (0.392199 -0.0238035 0)
2.4           (0.462263 -0.0231348 1.91239e-23) (0.497367 -0.00891236 -3.09476e-23) (0 0 0)       (-1.79769e+307 -1.79769e+307 -1.79769e+307) (0 0 0)       (0.49736 0.00891921 -4.62883e-23) (0.462262 0.0231362 -7.7349e-23) (0.456927 0.0135754 -1.34893e-23) (0.473084 0.0132786 -3.83159e-24) (0 0 0)       (-1.79769e+307 -1.79769e+307 -1.79769e+307) (0 0 0)       (0.473089 -0.0132813 -4.14217e-23) (0.456928 -0.0135754 2.26879e-24) (0.409209 0.0457901 -2.42715e-21) (0.403573 0.0555937 5.44682e-23) (0.393451 0.0708308 -5.8759e-22) (0.371585 0.0907727 1.32263e-23) (0.327317 0.100128 4.3692e-22) (0.272869 0.0713793 1.15043e-22) (0.242771 5.14711e-07 0) (0.272869 -0.071378 -6.20584e-23) (0.327316 -0.100127 -3.66445e-22) (0.371584 -0.0907724 -1.32293e-23) (0.39345 -0.0708309 6.33718e-22) (0.403573 -0.0555939 -8.00872e-23) (0.409208 -0.0457904 1.45809e-21) (0.392454 0.0249907 0) (0.388675 0.0257447 0) (0.384624 0.026714 0) (0.379885 0.0263757 0) (0.374784 0.0245917 0) (0.369772 0.0229209 0) (0.364912 0.0194539 0) (0.361932 0.0133922 0) (0.359172 0.00711788 0) (0.356948 1.31574e-07 0) (0.359172 -0.00711764 0) (0.361932 -0.013392 0) (0.364912 -0.0194537 0) (0.369772 -0.0229208 0) (0.374784 -0.0245917 0) (0.379885 -0.0263757 0) (0.384624 -0.0267141 0) (0.388675 -0.0257448 0) (0.392453 -0.0249908 0)
2.7           (0.463863 -0.0226351 1.98502e-23) (0.50324 -0.00529838 -3.34944e-23) (0 0 0)       (-1.79769e+307 -1.79769e+307 -1.79769e+307) (0 0 0)       (0.503232 0.00530332 -4.9154e-23) (0.463861 0.0226364 -8.05654e-23) (0.456776 0.0132931 -1.37741e-23) (0.471333 0.0130678 -3.84525e-24) (0 0 0)       (-1.79769e+307 -1.79769e+307 -1.79769e+307) (0 0 0)       (0.47134 -0.0130681 -4.16214e-23) (0.456777 -0.0132927 2.32349e-24) (0.410475 0.04607 -2.64838e-21) (0.405339 0.0564416 6.16689e-23) (0.396082 0.0729432 -6.89592e-22) (0.375193 0.0958156 2.20925e-23) (0.328182 0.111374 4.50401e-22) (0.262118 0.0840408 1.24623e-22) (0.225285 5.70065e-07 0) (0.262118 -0.0840392 -6.73865e-23) (0.328181 -0.111373 -3.85479e-22) (0.375192 -0.0958153 -2.20931e-23) (0.396081 -0.0729434 7.46697e-22) (0.405338 -0.0564419 -8.98514e-23) (0.410475 -0.0460704 1.59378e-21) (0.392617 0.0262061 0) (0.388756 0.0269804 0) (0.384517 0.0279636 0) (0.37955 0.0276968 0) (0.374118 0.0259478 0) (0.368697 0.0243471 0) (0.363394 0.0208104 0) (0.360145 0.0143615 0) (0.357184 0.00766441 0) (0.354719 1.60597e-07 0) (0.357184 -0.00766411 0) (0.360145 -0.0143612 0) (0.363394 -0.0208102 0) (0.368697 -0.024347 0) (0.374118 -0.0259477 0) (0.37955 -0.0276967 0) (0.384517 -0.0279636 0) (0.388756 -0.0269804 0) (0.392617 -0.0262061 0)
3             (0.46538 -0.0227793 2.0483e-23) (0.509958 -0.0029454 -3.60716e-23) (0 0 0)       (-1.79769e+307 -1.79769e+307 -1.79769e+307) (0 0 0)       (0.509949 0.00294863 -5.2007e-23) (0.465377 0.0227803 -8.33671e-23) (0.456652 0.013075 -1.3961e-23) (0.469727 0.0132344 -3.83669e-24) (0 0 0)       (-1.79769e+307 -1.79769e+307 -1.79769e+307) (0 0 0)       (0.469732 -0.0132314 -4.15726e-23) (0.456653 -0.0130742 2.35956e-24) (0.411709 0.0463579 -2.81366e-21) (0.407084 0.0572458 6.74668e-23) (0.398686 0.0748297 -7.7463e-22) (0.379174 0.100247 3.0762e-23) (0.330766 0.122338 4.53094e-22) (0.25096 0.0984513 1.30102e-22) (0.205753 5.9056e-07 0) (0.25096 -0.0984492 -7.15611e-23) (0.330764 -0.122337 -4.00253e-22) (0.379173 -0.100247 -3.07615e-23) (0.398685 -0.07483 8.41604e-22) (0.407083 -0.0572462 -9.76978e-23) (0.411709 -0.0463584 1.69379e-21) (0.392707 0.0273916 0) (0.388748 0.0282 0) (0.384388 0.0291568 0) (0.379226 0.0289681 0) (0.373484 0.0272781 0) (0.367675 0.0257601 0) (0.361907 0.0221866 0) (0.358393 0.0153569 0) (0.355254 0.00823502 0) (0.352535 1.97712e-07 0) (0.355254 -0.00823465 0) (0.358393 -0.0153566 0) (0.361907 -0.0221863 0) (0.367674 -0.0257599 0) (0.373484 -0.027278 0) (0.379225 -0.028968 0) (0.384388 -0.0291568 0) (0.388748 -0.0282001 0) (0.392707 -0.0273917 0)
3.3           (0.466926 -0.0225149 2.09031e-23) (0.517589 -0.00222233 -3.83266e-23) (0 0 0)       (-1.79769e+307 -1.79769e+307 -1.79769e+307) (0 0 0)       (0.51758 0.00222352 -5.45915e-23) (0.466923 0.0225163 -8.53333e-23) (0.456582 0.0129198 -1.40129e-23) (0.468428 0.0137548 -3.79403e-24) (0 0 0)       (-1.79769e+307 -1.79769e+307 -1.79769e+307) (0 0 0)       (0.468431 -0.0137511 -4.11578e-23) (0.456583 -0.0129187 2.37051e-24) (0.412913 0.0466668 -2.92635e-21) (0.408807 0.0579902 7.22426e-23) (0.401269 0.0764587 -8.49117e-22) (0.38342 0.104049 4.09238e-23) (0.334977 0.132427 4.43536e-22) (0.239858 0.113506 1.30183e-22) (0.18381 5.38605e-07 0) (0.239858 -0.113504 -7.43743e-23) (0.334975 -0.132426 -4.09251e-22) (0.383418 -0.104049 -4.08829e-23) (0.401268 -0.0764591 9.25209e-22) (0.408806 -0.0579907 -1.04024e-22) (0.412912 -0.0466673 1.76042e-21) (0.39275 0.0285015 0) (0.388673 0.0293627 0) (0.384245 0.0302783 0) (0.378917 0.0301814 0) (0.372877 0.0285823 0) (0.366706 0.0271634 0) (0.360451 0.0235955 0) (0.356659 0.0164014 0) (0.353363 0.00884491 0) (0.350369 2.45261e-07 0) (0.353363 -0.00884445 0) (0.356659 -0.016401 0) (0.360451 -0.0235952 0) (0.366706 -0.0271631 0) (0.372877 -0.0285821 0) (0.378916 -0.0301813 0) (0.384245 -0.0302783 0) (0.388673 -0.0293627 0) (0.39275 -0.0285016 0)
3.6           (0.46848 -0.0224024 2.12519e-23) (0.526056 -0.00301274 -4.0131e-23) (0 0 0)       (-1.79769e+307 -1.79769e+307 -1.79769e+307) (0 0 0)       (0.526046 0.0030115 -5.6959e-23) (0.468477 0.0224033 -8.68936e-23) (0.456584 0.0128358 -1.40112e-23) (0.467285 0.0144103 -3.74053e-24) (0 0 0)       (-1.79769e+307 -1.79769e+307 -1.79769e+307) (0 0 0)       (0.467287 -0.014407 -4.061e-23) (0.456585 -0.0128347 2.3709e-24) (0.414081 0.0469884 -2.99947e-21) (0.410478 0.0586641 7.59503e-23) (0.403793 0.0778101 -9.08386e-22) (0.387809 0.107225 5.20966e-23) (0.340399 0.141056 4.19843e-22) (0.229835 0.127614 1.25309e-22) (0.159427 4.25435e-07 0) (0.229835 -0.127612 -7.51498e-23) (0.340396 -0.141055 -4.08427e-22) (0.387806 -0.107225 -5.20961e-23) (0.403792 -0.0778106 9.94623e-22) (0.410477 -0.0586647 -1.09008e-22) (0.41408 -0.0469889 1.80287e-21) (0.392768 0.0294947 0) (0.38856 0.0304267 0) (0.384099 0.0313096 0) (0.378631 0.0313199 0) (0.372309 0.0298421 0) (0.365806 0.0285433 0) (0.359042 0.0250333 0) (0.35494 0.0175141 0) (0.351501 0.00950986 0) (0.348194 3.17699e-07 0) (0.351501 -0.00950926 0) (0.35494 -0.0175136 0) (0.359041 -0.0250329 0) (0.365806 -0.028543 0) (0.372309 -0.0298419 0) (0.37863 -0.0313198 0) (0.384098 -0.0313095 0) (0.38856 -0.0304267 0) (0.392768 -0.0294947 0)
3.9           (0.469923 -0.0226971 2.14519e-23) (0.534862 -0.00549518 -4.12219e-23) (0 0 0)       (-1.79769e+307 -1.79769e+307 -1.79769e+307) (0 0 0)       (0.534851 0.00549117 -5.87087e-23) (0.46992 0.0226966 -8.7836e-23) (0.456677 0.012875 -1.39322e-23) (0.465987 0.0149613 -3.66907e-24) (0 0 0)       (-1.79769e+307 -1.79769e+307 -1.79769e+307) (0 0 0)       (0.465987 -0.0149577 -3.9875e-23) (0.456677 -0.0128739 2.35847e-24) (0.415197 0.047301 -3.03309e-21) (0.412064 0.0592508 7.85824e-23) (0.406212 0.0788857 -9.54562e-22) (0.39224 0.109748 6.316e-23) (0.346581 0.14806 3.76916e-22) (0.221494 0.139592 1.15304e-22) (0.133031 1.61386e-07 0) (0.221494 -0.13959 -7.35048e-23) (0.346577 -0.148059 -3.91165e-22) (0.392237 -0.109748 -6.31618e-23) (0.40621 -0.0788865 1.05008e-21) (0.412063 -0.0592516 -1.1256e-22) (0.415196 -0.0473016 1.81987e-21) (0.392782 0.0303403 0) (0.38844 0.0313573 0) (0.383963 0.032234 0) (0.378382 0.0323674 0) (0.371807 0.0310372 0) (0.365006 0.0298852 0) (0.357722 0.026495 0) (0.353248 0.0187228 0) (0.349654 0.0102563 0) (0.345993 4.08794e-07 0) (0.349654 -0.0102555 0) (0.353248 -0.0187221 0) (0.357721 -0.0264944 0) (0.365005 -0.0298847 0) (0.371806 -0.0310369 0) (0.378382 -0.0323672 0) (0.383962 -0.0322339 0) (0.38844 -0.0313572 0) (0.392781 -0.0303403 0)
4.2           (0.471397 -0.0233338 2.15943e-23) (0.543517 -0.0102027 -4.15435e-23) (0 0 0)       (-1.79769e+307 -1.79769e+307 -1.79769e+307) (0 0 0)       (0.543505 0.0101946 -5.98864e-23) (0.471395 0.0233323 -8.85023e-23) (0.456912 0.0132065 -1.38682e-23) (0.464595 0.0155735 -3.60327e-24) (0 0 0)       (-1.79769e+307 -1.79769e+307 -1.79769e+307) (0 0 0)       (0.464594 -0.0155698 -3.91979e-23) (0.456912 -0.0132054 2.34666e-24) (0.41624 0.0476121 -3.06073e-21) (0.413556 0.059749 8.13804e-23) (0.408521 0.0797226 -1.00864e-21) (0.396639 0.111632 7.35448e-23) (0.353181 0.153347 3.17878e-22) (0.214603 0.148802 1.00437e-22) (0.105526 -3.55665e-07 0) (0.214603 -0.1488 -6.96506e-23) (0.353177 -0.153346 -3.58845e-22) (0.396635 -0.111633 -7.35447e-23) (0.408519 -0.0797237 1.11307e-21) (0.413555 -0.0597499 -1.16256e-22) (0.416239 -0.0476128 1.8323e-21) (0.392805 0.0310254 0) (0.388344 0.0321379 0) (0.383856 0.0330509 0) (0.378188 0.0333235 0) (0.371393 0.0321625 0) (0.364332 0.0311899 0) (0.356537 0.0279889 0) (0.351589 0.0200624 0) (0.347757 0.011118 0) (0.343696 4.95439e-07 0) (0.347757 -0.0111171 0) (0.351589 -0.0200615 0) (0.356536 -0.0279881 0) (0.364332 -0.0311893 0) (0.371393 -0.0321622 0) (0.378188 -0.0333233 0) (0.383855 -0.0330508 0) (0.388344 -0.0321378 0) (0.392805 -0.0310254 0)
4.5           (0.47299 -0.0243872 2.17214e-23) (0.551267 -0.0178202 -4.08321e-23) (0 0 0)       (-1.79769e+307 -1.79769e+307 -1.79769e+307) (0 0 0)       (0.551254 0.0178014 -6.04498e-23) (0.472988 0.0243848 -8.89922e-23) (0.457267 0.0138894 -1.38471e-23) (0.463317 0.0166297 -3.54887e-24) (0 0 0)       (-1.79769e+307 -1.79769e+307 -1.79769e+307) (0 0 0)       (0.463317 -0.016626 -3.86378e-23) (0.457267 -0.0138883 2.34009e-24) (0.41717 0.0479538 -3.08543e-21) (0.41494 0.0601645 8.44475e-23) (0.410695 0.0803472 -1.06933e-21) (0.400873 0.112907 8.30849e-23) (0.3595 0.156929 2.5288e-22) (0.208738 0.154944 8.29061e-23) (0.0781348 -1.12644e-06 0) (0.208738 -0.154943 -6.42482e-23) (0.359495 -0.156927 -3.19432e-22) (0.400869 -0.112909 -8.30705e-23) (0.410693 -0.0803488 1.18177e-21) (0.41494 -0.0601656 -1.20221e-22) (0.417169 -0.0479545 1.84106e-21) (0.392844 0.0315491 0) (0.388288 0.0327659 0) (0.383789 0.0337648 0) (0.378058 0.0341904 0) (0.371083 0.0332122 0) (0.363802 0.0324508 0) (0.355534 0.0295072 0) (0.349992 0.0215462 0) (0.345737 0.0121155 0) (0.341201 5.83455e-07 0) (0.345737 -0.0121143 0) (0.349992 -0.0215451 0) (0.355533 -0.0295063 0) (0.363802 -0.0324501 0) (0.371082 -0.0332118 0) (0.378058 -0.0341902 0) (0.383788 -0.0337647 0) (0.388288 -0.0327658 0) (0.392843 -0.0315491 0)
4.8           (0.474545 -0.0259006 2.16771e-23) (0.557299 -0.0289546 -3.82127e-23) (0 0 0)       (-1.79769e+307 -1.79769e+307 -1.79769e+307) (0 0 0)       (0.557307 0.0289238 -5.93324e-23) (0.474545 0.025898 -8.86052e-23) (0.457668 0.0146634 -1.38372e-23) (0.462254 0.018234 -3.50378e-24) (0 0 0)       (-1.79769e+307 -1.79769e+307 -1.79769e+307) (0 0 0)       (0.462255 -0.0182306 -3.82195e-23) (0.457667 -0.0146621 2.33721e-24) (0.417958 0.0483413 -3.10165e-21) (0.416197 0.0605111 8.74373e-23) (0.412692 0.0807641 -1.12871e-21) (0.404801 0.113609 9.17055e-23) (0.365199 0.159021 1.88257e-22) (0.203651 0.158285 6.52967e-23) (0.0520159 -2.06942e-06 0) (0.203651 -0.158285 -5.82764e-23) (0.365192 -0.159021 -2.76943e-22) (0.404796 -0.113613 -9.17023e-23) (0.41269 -0.0807661 1.24941e-21) (0.416196 -0.0605122 -1.24158e-22) (0.417958 -0.0483421 1.84439e-21) (0.392903 0.031936 0) (0.388281 0.0332585 0) (0.383775 0.0343911 0) (0.377999 0.0349793 0) (0.370883 0.0341922 0) (0.363425 0.0336712 0) (0.354758 0.0310458 0) (0.348497 0.0231749 0) (0.343522 0.0132555 0) (0.338402 6.56861e-07 0) (0.343521 -0.0132542 0) (0.348496 -0.0231737 0) (0.354757 -0.0310448 0) (0.363424 -0.0336706 0) (0.370882 -0.0341918 0) (0.377998 -0.0349792 0) (0.383774 -0.0343911 0) (0.388281 -0.0332585 0) (0.392903 -0.031936 0)
5.1           (0.475753 -0.0280065 2.15969e-23) (0.557636 -0.0451838 -3.49882e-23) (0 0 0)       (-1.79769e+307 -1.79769e+307 -1.79769e+307) (0 0 0)       (0.557673 0.0451867 -5.71802e-23) (0.475754 0.0280072 -8.79413e-23) (0.458136 0.0153495 -1.38876e-23) (0.461361 0.0202832 -3.48129e-24) (0 0 0)       (-1.79769e+307 -1.79769e+307 -1.79769e+307) (0 0 0)       (0.461363 -0.020281 -3.80412e-23) (0.458136 -0.0153485 2.34558e-24) (0.418607 0.0487482 -3.1374e-21) (0.417296 0.0608089 9.11549e-23) (0.414488 0.0810016 -1.19905e-21) (0.408293 0.113801 9.93895e-23) (0.370198 0.15971 1.21402e-22) (0.199176 0.15934 4.81975e-23) (0.0278453 -3.13657e-06 0) (0.199177 -0.159341 -5.15703e-23) (0.370187 -0.159714 -2.29075e-22) (0.408291 -0.113806 -9.93811e-23) (0.414487 -0.081004 1.32703e-21) (0.417296 -0.0608102 -1.28923e-22) (0.418607 -0.048749 1.85807e-21) (0.392987 0.0322244 0) (0.388323 0.0336487 0) (0.383819 0.0349522 0) (0.378009 0.0357084 0) (0.370791 0.0351154 0) (0.363199 0.0348607 0) (0.354238 0.0326009 0) (0.347136 0.0249392 0) (0.341022 0.0145325 0) (0.33518 6.78172e-07 0) (0.341021 -0.0145311 0) (0.347135 -0.0249379 0) (0.354237 -0.0326 0) (0.363198 -0.0348602 0) (0.37079 -0.0351152 0) (0.378008 -0.0357084 0) (0.383818 -0.0349524 0) (0.388323 -0.0336488 0) (0.392987 -0.0322246 0)
5.4           (0.476273 -0.0303507 2.17671e-23) (0.54733 -0.0591974 -3.33348e-23) (0 0 0)       (-1.79769e+307 -1.79769e+307 -1.79769e+307) (0 0 0)       (0.547343 0.0592571 -5.55865e-23) (0.476274 0.0303572 -8.8328e-23) (0.458747 0.0160831 -1.40303e-23) (0.460576 0.022612 -3.4667e-24) (0 0 0)       (-1.79769e+307 -1.79769e+307 -1.79769e+307) (0 0 0)       (0.460578 -0.0226124 -3.79786e-23) (0.458747 -0.0160826 2.37091e-24) (0.419147 0.0491038 -3.1946e-21) (0.418217 0.061058 9.5242e-23) (0.416074 0.0811029 -1.27269e-21) (0.411251 0.113698 1.05886e-22) (0.374328 0.159216 5.54252e-23) (0.195264 0.158767 3.22594e-23) (0.00616139 -4.19696e-06 0) (0.195264 -0.15877 -4.44466e-23) (0.374315 -0.159226 -1.78433e-22) (0.411252 -0.113703 -1.0588e-22) (0.416074 -0.081105 1.40729e-21) (0.418217 -0.0610594 -1.34141e-22) (0.419147 -0.0491048 1.8872e-21) (0.393087 0.0324478 0) (0.388409 0.0339686 0) (0.383921 0.0354646 0) (0.378084 0.0363892 0) (0.370799 0.03599 0) (0.363123 0.0360168 0) (0.353992 0.0341507 0) (0.345965 0.0268014 0) (0.338179 0.0159286 0) (0.331442 6.71693e-07 0) (0.338179 -0.0159272 0) (0.345964 -0.0268002 0) (0.353991 -0.0341499 0) (0.363122 -0.0360165 0) (0.370798 -0.0359899 0) (0.378084 -0.0363894 0) (0.38392 -0.0354649 0) (0.388408 -0.0339689 0) (0.393087 -0.0324482 0)
5.7           (0.476174 -0.0323058 2.22827e-23) (0.533341 -0.0626587 -3.36295e-23) (0 0 0)       (-1.79769e+307 -1.79769e+307 -1.79769e+307) (0 0 0)       (0.533293 0.0627319 -5.53284e-23) (0.476171 0.0323175 -9.016e-23) (0.459557 0.0172253 -1.42555e-23) (0.459998 0.0255194 -3.44403e-24) (0 0 0)       (-1.79769e+307 -1.79769e+307 -1.79769e+307) (0 0 0)       (0.46 -0.0255243 -3.78784e-23) (0.459559 -0.0172257 2.41309e-24) (0.419629 0.0493408 -3.26972e-21) (0.41897 0.0612343 9.92247e-23) (0.417455 0.0810874 -1.34165e-21) (0.413763 0.113447 1.10802e-22) (0.377368 0.158092 3.17089e-25) (0.191848 0.156975 1.88021e-23) (-0.0130208 -5.08482e-06 0) (0.191843 -0.156981 -3.81711e-23) (0.377361 -0.158103 -1.34711e-22) (0.413766 -0.113449 -1.108e-22) (0.417455 -0.0810893 1.48145e-21) (0.418971 -0.0612358 -1.39171e-22) (0.419629 -0.049342 1.93088e-21) (0.393193 0.0326359 0) (0.388531 0.0342461 0) (0.384076 0.0359412 0) (0.378221 0.0370309 0) (0.370901 0.0368232 0) (0.363195 0.037135 0) (0.354019 0.0356711 0) (0.345034 0.0287088 0) (0.334973 0.0174143 0) (0.327112 6.20861e-07 0) (0.334972 -0.0174129 0) (0.345032 -0.0287077 0) (0.354017 -0.0356707 0) (0.363194 -0.0371351 0) (0.3709 -0.0368234 0) (0.378221 -0.0370313 0) (0.384075 -0.0359416 0) (0.388531 -0.0342465 0) (0.393193 -0.0326364 0)
6             (0.475757 -0.0335281 2.28791e-23) (0.52279 -0.0576671 -3.52417e-23) (0 0 0)       (-1.79769e+307 -1.79769e+307 -1.79769e+307) (0 0 0)       (0.5227 0.0577183 -5.59772e-23) (0.475747 0.0335431 -9.23218e-23) (0.460481 0.0186776 -1.4611e-23) (0.459894 0.0295925 -3.45234e-24) (0 0 0)       (-1.79769e+307 -1.79769e+307 -1.79769e+307) (0 0 0)       (0.459897 -0.0296055 -3.81706e-23) (0.460487 -0.0186792 2.47463e-24) (0.420078 0.0494496 -3.38726e-21) (0.419591 0.0613148 1.04099e-22) (0.418641 0.0809631 -1.42103e-21) (0.415928 0.113014 1.1518e-22) (0.379327 0.156801 -5.08899e-23) (0.188905 0.154461 6.69746e-24) (-0.0297321 -5.64262e-06 0) (0.188893 -0.154471 -3.19927e-23) (0.379331 -0.156805 -9.30455e-23) (0.415929 -0.113016 -1.15186e-22) (0.418641 -0.0809651 1.56612e-21) (0.419591 -0.0613165 -1.45303e-22) (0.420079 -0.0494511 2.0038e-21) (0.393293 0.0328176 0) (0.388681 0.0345066 0) (0.384273 0.0363917 0) (0.378414 0.037639 0) (0.37109 0.0376187 0) (0.363405 0.0382073 0) (0.354305 0.0371339 0) (0.344377 0.0306011 0) (0.331422 0.0189426 0) (0.322146 5.06679e-07 0) (0.331421 -0.0189414 0) (0.344375 -0.0306002 0) (0.354303 -0.0371339 0) (0.363404 -0.0382077 0) (0.371089 -0.0376191 0) (0.378414 -0.0376396 0) (0.384273 -0.0363923 0) (0.388681 -0.0345072 0) (0.393293 -0.0328182 0)
6.3           (0.475304 -0.0340075 2.33056e-23) (0.516945 -0.0481571 -3.7007e-23) (0 0 0)       (-1.79769e+307 -1.79769e+307 -1.79769e+307) (0 0 0)       (0.516842 0.0481771 -5.68599e-23) (0.475288 0.0340232 -9.38116e-23) (0.461537 0.0200977 -1.49999e-23) (0.460537 0.0348414 -3.48679e-24) (0 0 0)       (-1.79769e+307 -1.79769e+307 -1.79769e+307) (0 0 0)       (0.460546 -0.0348664 -3.87948e-23) (0.461547 -0.0201 2.53752e-24) (0.42049 0.0494671 -3.52323e-21) (0.420118 0.0613038 1.09311e-22) (0.419639 0.0807502 -1.50426e-21) (0.417741 0.112377 1.1911e-22) (0.380708 0.155293 -9.72839e-23) (0.186215 0.151607 -3.78458e-24) (-0.0441038 -5.72075e-06 0) (0.186202 -0.151618 -2.62647e-23) (0.380714 -0.155293 -5.38549e-23) (0.417741 -0.112378 -1.19124e-22) (0.419638 -0.0807524 1.65442e-21) (0.420118 -0.0613059 -1.51827e-22) (0.420491 -0.049469 2.08969e-21) (0.393382 0.0330162 0) (0.388847 0.0347745 0) (0.384499 0.036826 0) (0.378656 0.0382197 0) (0.371353 0.0383814 0) (0.363739 0.0392286 0) (0.354824 0.0385184 0) (0.344007 0.032421 0) (0.327581 0.0204623 0) (0.316537 3.85095e-07 0) (0.327581 -0.0204613 0) (0.344005 -0.0324204 0) (0.354822 -0.0385189 0) (0.363737 -0.0392293 0) (0.371352 -0.0383821 0) (0.378656 -0.0382204 0) (0.384499 -0.0368268 0) (0.388847 -0.0347753 0) (0.393382 -0.033017 0)