# Probe 0 (0.5 -1.5 0.05)
# Probe 1 (0.5 -1 0.05)
# Probe 2 (0.5 -0.5 0.05)
# Probe 3 (0.5 0 0.05)
# Probe 4 (0.5 0.5 0.05)
# Probe 5 (0.5 1 0.05)
# Probe 6 (0.5 1.5 0.05)
# Probe 7 (2 -1.5 0.05)
# Probe 8 (2 -1.25 0.05)
# Probe 9 (2 -1 0.05)
# Probe 10 (2 -0.75 0.05)
# Probe 11 (2 -0.5 0.05)
# Probe 12 (2 -0.25 0.05)
# Probe 13 (2 0 0.05)
# Probe 14 (2 0.25 0.05)
# Probe 15 (2 0.5 0.05)
# Probe 16 (2 0.75 0.05)
# Probe 17 (2 1 0.05)
# Probe 18 (2 1.25 0.05)
# Probe 19 (2 1.5 0.05)
# Probe 20 (3 -1.5 0.05)
# Probe 21 (3 -1.333 0.05)
# Probe 22 (3 -1.167 0.05)
# Probe 23 (3 -1 0.05)
# Probe 24 (3 -0.833 0.05)
# Probe 25 (3 -0.667 0.05)
# Probe 26 (3 -0.5 0.05)
# Probe 27 (3 -0.333 0.05)
# Probe 28 (3 -0.167 0.05)
# Probe 29 (3 0 0.05)
# Probe 30 (3 0.167 0.05)
# Probe 31 (3 0.333 0.05)
# Probe 32 (3 0.5 0.05)
# Probe 33 (3 0.667 0.05)
# Probe 34 (3 0.833 0.05)
# Probe 35 (3 1 0.05)
# Probe 36 (3 1.167 0.05)
# Probe 37 (3 1.333 0.05)
# Probe 38 (3 1.5 0.05)
# Time        0             1             2             3             4             5             6             7             8             9             10            11            12            13            14            15            16            17            18            19            20            21            22            23            24            25            26            27            28            29            30            31            32            33            34            35            36            37            38           
0             0             0             0             -1.79769e+307 0             0             0             0             0             0             0             0             0             0             0             0             0             0             0             0             0             0             0             0             0             0             0             0             0             0             0             0             0             0             0             0             0             0             0            
0.3           -0.0157922    -0.0351808    -0.0617915    -1.79769e+307 -0.0617902    -0.0351779    -0.0157903    -0.00236112   -0.002256     -0.00118149   0.000941966   0.00362502    0.0059208     0.0068437     0.00592089    0.0036252     0.000942224   -0.00118119   -0.00225565   -0.00236075   -0.00157878   -0.0011078    -0.000689252  -0.000281999  0.000130605   0.000525624   0.000872905   0.00115466    0.0013357     0.00141848    0.00133574    0.00115474    0.00087303    0.000525787   0.000130803   -0.00028177   -0.000688992  -0.00110751   -0.00157847  
0.6           -0.0173327    -0.0372183    -0.0627172    -1.79769e+307 -0.0627143    -0.0372153    -0.0173311    -0.00376231   -0.00321692   -0.00213724   0.000194325   0.00330895    0.00593644    0.00695691    0.00593651    0.0033091     0.000194564   -0.0021369    -0.00321647   -0.0037618    -0.00144047   -0.00101178   -0.000578306  -0.000142581  0.000307603   0.000736739   0.00111082    0.00141279    0.00160588    0.00168903    0.00160591    0.00141285    0.00111091    0.000736855   0.000307749   -0.000142407  -0.000578101  -0.00101155   -0.00144021  
0.9           -0.0179087    -0.0377798    -0.0602972    -1.79769e+307 -0.0603011    -0.0377782    -0.0179077    -0.00456052   -0.0040237    -0.00289571   -0.000384845  0.0032491     0.00647594    0.00772547    0.00647638    0.0032497     -0.000384516  -0.00289609   -0.00402514   -0.00456311   -0.00151071   -0.00113881   -0.000698264  -0.00022324   0.000284701   0.000775664   0.00120535    0.00155467    0.00177848    0.00187372    0.00177853    0.00155477    0.00120547    0.000775785   0.000284794   -0.000223204  -0.000698309  -0.00113896   -0.00151098  
1.2           -0.018749     -0.0387844    -0.0576413    -1.79769e+307 -0.05764      -0.0387808    -0.0187469    -0.00518177   -0.00478904   -0.00346732   -0.000627223  0.00374884    0.00790156    0.00953333    0.00790181    0.00374934    -0.000626513  -0.00346646   -0.00478811   -0.00518083   -0.00141905   -0.00102462   -0.000560134  -3.13204e-05  0.000551231   0.00112816    0.00164086    0.00206169    0.00233267    0.00244596    0.00233274    0.00206184    0.00164109    0.00112846    0.000551595   -3.08987e-05  -0.000559663  -0.00102411   -0.00141851  
1.5           -0.0195639    -0.0397819    -0.053891     -1.79769e+307 -0.0538965    -0.0397832    -0.0195647    -0.00578239   -0.00549399   -0.0040708    -0.000849224  0.00441211    0.00980025    0.0119583     0.00980014    0.00441194    -0.000849443  -0.00407103   -0.00549423   -0.00578261   -0.00131939   -0.000860403  -0.000337163  0.000260966   0.00093198    0.00161215    0.00222892    0.0027408     0.00307278    0.00320934    0.00307276    0.00274076    0.00222886    0.00161206    0.000931876   0.000260844   -0.0003373    -0.000860553  -0.00131955  
1.8           -0.0205165    -0.0411683    -0.0464522    -1.79769e+307 -0.0464542    -0.0411672    -0.020516     -0.0063562    -0.00614564   -0.00472395   -0.00109458   0.00513353    0.012106      0.0149595     0.0121064     0.00513423    -0.00109363   -0.00472278   -0.00614436   -0.00635485   -0.00119054   -0.000659891  -5.66442e-05  0.000635466   0.00141376    0.0022149     0.00295555    0.00357795    0.0039854     0.00415139    0.0039855     0.00357815    0.00295585    0.00221529    0.00141423    0.000636009   -5.60386e-05  -0.000659237  -0.00118985  
2.1           -0.0214837    -0.0428323    -0.0369083    -1.79769e+307 -0.036917     -0.0428334    -0.0214846    -0.00692681   -0.00677609   -0.00537451   -0.0014787    0.00573845    0.0145947     0.0183104     0.0145943     0.00573786    -0.00147904   -0.00537467   -0.00677633   -0.00692714   -0.00104855   -0.000445839  0.000252235   0.00105435    0.00195423    0.00288685    0.00376285    0.00450892    0.00500264    0.00520275    0.00500261    0.00450885    0.00376277    0.00288674    0.00195411    0.00105421    0.000252086   -0.000446003  -0.00104873  
2.4           -0.0225118    -0.0448898    -0.0269007    -1.79769e+307 -0.026904     -0.0448909    -0.0225128    -0.00752329   -0.00742544   -0.00608488   -0.00207654   0.0060757     0.0170965     0.0218137     0.017096      0.00607582    -0.00207545   -0.00608395   -0.0074249    -0.00752302   -0.000916379  -0.000233982  0.000561545   0.00147618    0.00251012    0.00358584    0.0046069     0.00548802    0.00607806    0.00631693    0.00607809    0.00548809    0.00460701    0.00358599    0.00251029    0.00147636    0.000561726   -0.000233818  -0.000916238 
2.7           -0.0235283    -0.0472739    -0.0196677    -1.79769e+307 -0.0196693    -0.0472746    -0.0235292    -0.00810772   -0.00809018   -0.00686385   -0.00288771   0.00596729    0.0193622     0.0253896     0.0193625     0.00596928    -0.00288574   -0.00686286   -0.00808975   -0.00810759   -0.000796356  -3.84833e-05  0.000844319   0.0018618     0.00302625    0.00424825    0.00541671    0.00643665    0.00712788    0.0074081     0.00712798    0.00643685    0.00541698    0.00424857    0.00302659    0.00186212    0.000844606   -3.82418e-05  -0.000796163 
3             -0.0245277    -0.0499358    -0.0213133    -1.79769e+307 -0.0213056    -0.0499354    -0.0245282    -0.00866151   -0.00872978   -0.00763269   -0.00376762   0.00544885    0.0210803     0.0286886     0.0210821     0.00545251    -0.0037659    -0.00763197   -0.00872951   -0.00866148   -0.000667324  0.000157236   0.00112683    0.00224904    0.00354434    0.00491959    0.00624512    0.00741368    0.00821457    0.00854034    0.00821472    0.00741396    0.0062455     0.00492001    0.00354476    0.00224942    0.00112716    0.000157508   -0.000667108 
3.3           -0.0254154    -0.0526662    -0.0364607    -1.79769e+307 -0.0364465    -0.0526661    -0.0254162    -0.00917069   -0.00933061   -0.00838701   -0.00476072   0.00429584    0.0219533     0.031121      0.0219557     0.00429788    -0.0047601    -0.00838685   -0.00933071   -0.00917094   -0.000571713  0.000309312   0.00135958    0.00258347    0.00400394    0.00552686    0.007008      0.00832602    0.00923834    0.00961006    0.00923846    0.00832622    0.00700824    0.0055271     0.00400414    0.00258362    0.00135968    0.000309362   -0.000571712 
3.6           -0.0262986    -0.0556263    -0.0697991    -1.79769e+307 -0.0697899    -0.0556351    -0.0263068    -0.00965421   -0.00990633   -0.00913575   -0.00582919   0.00279973    0.0221476     0.0331312     0.0221411     0.00278966    -0.00583938   -0.00914547   -0.00991538   -0.00966265   -0.000499905  0.000432751   0.00155997    0.00288603    0.00443341    0.00610594    0.0077477     0.00922284    0.0102551     0.010677      0.0102543     0.00922118    0.00774529    0.00610288    0.00442983    0.00288204    0.00155567    0.000428251   -0.000504541 
3.9           -0.0273778    -0.0592936    -0.122115     -1.79769e+307 -0.122084     -0.0592935    -0.0273785    -0.0101088    -0.0104291    -0.00982389   -0.00686638   0.00113968    0.021569      0.0345223     0.0215707     0.00114152    -0.00686549   -0.00982356   -0.010429     -0.0101089    -0.000429914  0.000553767   0.00175618    0.00318482    0.00486156    0.00668767    0.00849733    0.0101393     0.0113013     0.0117802     0.0113014     0.0101395     0.00849752    0.00668785    0.00486172    0.00318495    0.00175627    0.00055383    -0.000429884 
4.2           -0.0284825    -0.063089     -0.176099     -1.79769e+307 -0.176054     -0.063088     -0.0284828    -0.0105047    -0.0108686    -0.0104305    -0.00785889   -0.000616664  0.0201941     0.0346837     0.0201963     -0.000614358  -0.00785798   -0.01043      -0.0108684    -0.0105046    -0.000357047  0.000671978   0.00194026    0.00346079    0.00525633    0.00722714    0.00920021    0.0110088     0.0122996     0.0128308     0.0122997     0.011009      0.00920037    0.00722731    0.00525648    0.00346092    0.00194037    0.000672069   -0.000356979 
4.5           -0.0294699    -0.0665603    -0.222246     -1.79769e+307 -0.222252     -0.0665569    -0.0294691    -0.0108616    -0.0112589    -0.0109888    -0.00883104   -0.00243182   0.0183488     0.03387       0.0183513     -0.00242984   -0.00883008   -0.0109883    -0.0112586    -0.0108614    -0.000287774  0.000781373   0.00210636    0.0037071     0.00560976    0.0077163     0.00984944    0.0118298     0.0132581     0.0138437     0.0132582     0.0118299     0.00984957    0.00771643    0.0056099     0.00370725    0.00210651    0.000781517   -0.000287634 
4.8           -0.030354     -0.0697393    -0.254597     -1.79769e+307 -0.254583     -0.0697381    -0.0303537    -0.0112046    -0.0116357    -0.0115183    -0.00976132   -0.00420593   0.016244      0.0322875     0.0162466     -0.00420347   -0.00975993   -0.0115176    -0.0116353    -0.0112043    -0.000227904  0.00087662    0.00225111    0.00392253    0.0059224     0.0081568     0.0104476     0.012608      0.0141911     0.0148431     0.0141912     0.0126081     0.0104478     0.00815694    0.00592256    0.00392271    0.00225129    0.000876788   -0.000227747 
5.1           -0.0311605    -0.0726561    -0.273049     -1.79769e+307 -0.273071     -0.0726558    -0.031161     -0.0114984    -0.0119625    -0.0119669    -0.0105649    -0.00576837   0.0141483     0.0303259     0.014151      -0.00576556   -0.0105638    -0.0119667    -0.0119627    -0.0114986    -0.000155424  0.000982685   0.00240215    0.00413636    0.00622306    0.00857368    0.0110127     0.0133517     0.0150975     0.0158219     0.0150975     0.0133517     0.0110127     0.00857367    0.00622304    0.00413632    0.00240208    0.000982597   -0.000155535 
5.4           -0.031992     -0.0753562    -0.265218     -1.79769e+307 -0.265229     -0.0753574    -0.0319933    -0.0117467    -0.0122252    -0.0123045    -0.0111719    -0.00694916   0.0122577     0.0282842     0.0122632     -0.006944     -0.0111693    -0.0123033    -0.0122245    -0.0117463    -7.20069e-05  0.00109844    0.00255914    0.00434851    0.00651055    0.00896242    0.0115345     0.0140427     0.0159511     0.0167472     0.0159513     0.014043      0.0115348     0.00896279    0.00651094    0.00434887    0.00255946    0.00109871    -7.17985e-05 
5.7           -0.0329404    -0.0779358    -0.239903     -1.79769e+307 -0.239925     -0.0779377    -0.0329417    -0.0119529    -0.0124306    -0.0125269    -0.0115601    -0.00771035   0.0107168     0.0263631     0.0107195     -0.00770809   -0.0115591    -0.0125265    -0.0124304    -0.011953     1.87552e-05   0.0012223     0.00272283    0.00456249    0.00679134    0.00933209    0.0120226     0.0146891     0.0167584     0.0176235     0.0167584     0.0146891     0.0120227     0.00933212    0.00679138    0.00456253    0.00272284    0.00122229    1.87123e-05  
6             -0.0339253    -0.0802861    -0.21538      -1.79769e+307 -0.215421     -0.0802883    -0.0339262    -0.0120961    -0.0125517    -0.0126093    -0.0117072    -0.00808384   0.00957059    0.0246864     0.00957257    -0.00808201   -0.0117061    -0.0126088    -0.0125514    -0.012096     0.000127113   0.00136409    0.00290275    0.00478848    0.00707655    0.00969521    0.0124903     0.0153033     0.0175317     0.0184651     0.0175317     0.0153034     0.0124904     0.0096953     0.00707667    0.00478859    0.00290284    0.00136417    0.00012716   
6.3           -0.0348558    -0.0822348    -0.1932       -1.79769e+307 -0.193238     -0.0822358    -0.0348557    -0.0122139    -0.0126372    -0.0126237    -0.0117133    -0.00817875   0.00876189    0.0232428     0.00876326    -0.00817707   -0.0117122    -0.0126231    -0.0126368    -0.0122136    0.000221708   0.00148892    0.00306062    0.00498521    0.00732221    0.0100055     0.0128884     0.015832      0.0182121     0.0192126     0.0182122     0.0158321     0.0128885     0.0100056     0.00732241    0.00498542    0.00306082    0.00148911    0.00022189   
6.6           -0.0356589    -0.0836944    -0.183541     -1.79769e+307 -0.183545     -0.0836929    -0.0356577    -0.0122897    -0.0126729    -0.012562     -0.0115621    -0.00800093   0.00828127    0.0220703     0.00828193    -0.00799981   -0.0115612    -0.0125613    -0.0126722    -0.012289     0.000311274   0.00160586    0.00320562    0.0051617     0.00753694    0.0102708     0.0132239     0.0162794     0.0187969     0.0198606     0.018797      0.0162795     0.0132242     0.0102711     0.00753726    0.00516205    0.00320598    0.00160623    0.000311659  
6.9           -0.036385     -0.0849296    -0.179667     -1.79769e+307 -0.179651     -0.0849264    -0.0363833    -0.0123475    -0.0126878    -0.0124613    -0.0113081    -0.00760032   0.00809673    0.0211696     0.00809637    -0.00760022   -0.0113077    -0.0124608    -0.0126872    -0.0123468    0.00037998    0.00169793    0.00332032    0.00530052    0.00770383    0.0104748     0.0134813     0.0166296     0.0192655     0.0203854     0.0192656     0.0166297     0.0134816     0.0104751     0.00770414    0.00530086    0.00332068    0.0016983     0.000380377  
7.2           -0.0370843    -0.0861592    -0.184141     -1.79769e+307 -0.184117     -0.0861566    -0.0370833    -0.0123773    -0.0126642    -0.0123072    -0.010955     -0.0069885    0.00822866    0.0205962     0.00822728    -0.0069892    -0.0109551    -0.012307     -0.0126639    -0.0123769    0.000433304   0.00177097    0.00341241    0.00541104    0.00783428    0.0106305     0.0136755     0.0168993     0.0196323     0.0207997     0.0196324     0.0168994     0.0136757     0.0106307     0.00783449    0.00541125    0.00341263    0.00177121    0.000433548  
7.5           -0.0376221    -0.0868003    -0.188987     -1.79769e+307 -0.188984     -0.0868002    -0.0376224    -0.0123984    -0.0126225    -0.0121439    -0.0105767    -0.00629358   0.00853861    0.0202388     0.00853644    -0.00629488   -0.0105772    -0.0121442    -0.0126226    -0.0123985    0.000457084   0.00180609    0.00345834    0.0054651     0.0078957     0.0107018     0.0137671     0.0170458     0.0198516     0.021055      0.0198517     0.0170459     0.0137672     0.0107019     0.00789576    0.00546514    0.00345835    0.00180609    0.000457073  
7.8           -0.037876     -0.0862137    -0.183223     -1.79769e+307 -0.183242     -0.0862167    -0.0378771    -0.0124141    -0.0125759    -0.0119941    -0.0102076    -0.00558192   0.0089139     0.0199673     0.00891116    -0.00558382   -0.0102085    -0.0119947    -0.0125764    -0.0124144    0.000455342   0.00180311    0.00345464    0.00545667    0.00787977    0.0106786     0.0137451     0.0170551     0.0199078     0.0211353     0.0199079     0.0170551     0.0137452     0.0106786     0.00787973    0.00545658    0.00345451    0.00180295    0.000455168  
8.1           -0.0380328    -0.0853468    -0.183261     -1.79769e+307 -0.183282     -0.0853499    -0.0380335    -0.0124642    -0.0125529    -0.0118733    -0.00985048   -0.0048573    0.00938641    0.0198606     0.00938323    -0.00485969   -0.00985172   -0.0118741    -0.0125534    -0.0124647    0.000415018   0.00175296    0.00339579    0.00538425    0.00778892    0.0105667     0.0136182     0.0169362     0.0198108     0.0210518     0.0198109     0.0169363     0.0136183     0.0105667     0.00778888    0.00538415    0.00339565    0.0017528     0.000414843  
8.4           -0.0382797    -0.0851433    -0.185813     -1.79769e+307 -0.185834     -0.0851487    -0.038281     -0.0125185    -0.0125121    -0.0117033    -0.0093976    -0.0039761    0.0101099     0.0200313     0.010106      -0.00397919   -0.00939924   -0.0117042    -0.0125127    -0.012519     0.000371619   0.00169857    0.00333239    0.00530758    0.00769148    0.0104423     0.0134693     0.0167776     0.0196516     0.0208959     0.0196516     0.0167776     0.0134693     0.0104422     0.00769138    0.00530744    0.00333221    0.00169837    0.000371398  
8.7           -0.0384922    -0.0852195    -0.184148     -1.79769e+307 -0.184172     -0.0852235    -0.0384928    -0.0126069    -0.012508     -0.0115425    -0.00892744   -0.00301494   0.0110183     0.0204154     0.0110138     -0.00301853   -0.00892929   -0.0115434    -0.0125084    -0.0126073    0.000315411   0.00162685    0.00324855    0.0052089     0.00756927    0.0102873     0.0132812     0.0165647     0.0194181     0.0206567     0.0194182     0.0165648     0.0132813     0.0102873     0.0075692     0.00520881    0.00324844    0.00162672    0.000315285  
9             -0.0386355    -0.0853085    -0.181524     -1.79769e+307 -0.181549     -0.085311     -0.0386361    -0.0127229    -0.0125765    -0.0114527    -0.00853925   -0.00212569   0.0119433     0.0208511     0.0119383     -0.00212973   -0.00854139   -0.0114538    -0.0125771    -0.0127232    0.000221563   0.00151255    0.00311657    0.0050575     0.007389      0.0100672     0.0130181     0.0162608     0.0190749     0.0202993     0.019075      0.0162607     0.013018      0.0100671     0.00738886    0.00505735    0.00311641    0.00151239    0.00022141   
9.3           -0.0385179    -0.0847765    -0.174156     -1.79769e+307 -0.174182     -0.0847776    -0.0385181    -0.0129458    -0.0128117    -0.0115916    -0.00844905   -0.00160798   0.0125268     0.0209863     0.0125217     -0.00161215   -0.00845119   -0.0115925    -0.012812     -0.0129459    3.07295e-05   0.00128894    0.00285973    0.00476666    0.00705499    0.00967974    0.0125727     0.0157531     0.0185082     0.0197097     0.0185082     0.015753      0.0125726     0.00967961    0.00705485    0.00476652    0.0028596     0.00128883    3.06351e-05  
9.6           -0.0379842    -0.0835138    -0.160809     -1.79769e+307 -0.160829     -0.0835166    -0.0379855    -0.01332      -0.0132833    -0.0120887    -0.00885205   -0.00171582   0.0124917     0.0205392     0.0124868     -0.00171964   -0.00885384   -0.0120894    -0.0132835    -0.0133201    -0.000309503  0.000898228   0.0024137     0.0042649     0.0064893     0.00904159    0.0118593     0.0149535     0.0176299     0.0187999     0.0176299     0.0149533     0.0118591     0.00904144    0.00648915    0.00426476    0.00241357    0.000898112   -0.00030961  
9.9           -0.0370614    -0.0818013    -0.147889     -1.79769e+307 -0.147908     -0.0818032    -0.0370627    -0.013833     -0.0139854    -0.0129312    -0.00971514   -0.00242322   0.0118584     0.0195214     0.0118539     -0.00242655   -0.00971661   -0.0129315    -0.0139852    -0.0138328    -0.00079751   0.00034917    0.00179444    0.00357378    0.00571956    0.00818571    0.0109155     0.0139059     0.0164885     0.0176196     0.0164885     0.0139058     0.0109154     0.00818556    0.00571944    0.00357371    0.00179439    0.00034915    -0.000797516 
10.2          -0.0359695    -0.0799364    -0.137015     -1.79769e+307 -0.137031     -0.079936     -0.0359699    -0.0145608    -0.0149659    -0.0141164    -0.0109521    -0.0035015    0.0108802     0.0181893     0.010876      -0.0035046    -0.0109532    -0.0141162    -0.0149652    -0.01456      -0.00139699   -0.000314564  0.00105713    0.00276111    0.00482804    0.00720919    0.00985035    0.0127316     0.0152138     0.0163015     0.0152138     0.0127315     0.00985017    0.00720908    0.00482801    0.00276117    0.00105726    -0.000314374  -0.00139677  
10.5          -0.034898     -0.077639     -0.127342     -1.79769e+307 -0.127336     -0.0776338    -0.0348952    -0.0155062    -0.016197     -0.0155687    -0.0124227    -0.00463707   0.00993034    0.0169301     0.00992646    -0.00463996   -0.012423     -0.0155672    -0.0161948    -0.0155039    -0.00202765   -0.000999995  0.000309722   0.0019508     0.00395511    0.0062692     0.00883546    0.011616      0.0140004     0.0150445     0.0140004     0.011616      0.00883545    0.00626935    0.00395546    0.00195134    0.000310439   -0.000999125  -0.00202667  
10.8          -0.0346614    -0.0765103    -0.123503     -1.79769e+307 -0.123446     -0.0765033    -0.0346647    -0.0163894    -0.017255     -0.0166885    -0.0133276    -0.00484929   0.0101756     0.016946      0.0101699     -0.00485628   -0.0133339    -0.0166946    -0.0172612    -0.0163953    -0.0024143    -0.0013865    -8.12169e-05  0.00155423    0.00355456    0.00585743    0.0083948     0.0111092     0.0134151     0.0144225     0.0134145     0.0111078     0.00839285    0.0058551     0.00355194    0.0015514     -8.41927e-05  -0.00138957   -0.00241744  
11.1          -0.0347028    -0.0763541    -0.121904     -1.79769e+307 -0.121894     -0.0763498    -0.0347004    -0.017127     -0.0181734    -0.0177058    -0.0142       -0.00513495   0.0103705     0.0169159     0.0103655     -0.0051398    -0.0142024    -0.0177066    -0.0181734    -0.0171267    -0.00268726   -0.00164661   -0.000330009  0.0013136     0.00332293    0.00562622    0.00814205    0.0107957     0.0130246     0.0139936     0.0130242     0.0107949     0.00814113    0.00562529    0.00332211    0.00131293    -0.000330499  -0.00164693   -0.00268745  
11.4          -0.0343266    -0.076246     -0.119824     -1.79769e+307 -0.119807     -0.0762448    -0.0343261    -0.0178547    -0.0192285    -0.0191099    -0.0157958    -0.00650032   0.00932921    0.0156499     0.009324      -0.00650561   -0.0157993    -0.0191123    -0.0192303    -0.0178562    -0.0030553    -0.00203163   -0.000730258  0.000895428   0.00288723    0.00516786    0.00764243    0.0102213     0.0123632     0.0132859     0.0123626     0.0102201     0.0076409     0.00516621    0.00288559    0.00089387    -0.000731697  -0.00203294   -0.0030565   
11.7          -0.033776     -0.0763785    -0.120057     -1.79769e+307 -0.120052     -0.0763807    -0.033775     -0.018588     -0.0203971    -0.020834     -0.0179996    -0.00865638   0.00744814    0.0136158     0.00744386    -0.00866009   -0.0180015    -0.0208346    -0.0203968    -0.0185874    -0.00345056   -0.00245646   -0.0011786    0.000424154   0.00239333    0.00464901    0.0070844     0.00959354    0.0116515     0.0125258     0.0116508     0.00959246    0.0070831     0.00464771    0.00239217    0.000423199   -0.00117933   -0.00245696   -0.00345087  
12            -0.0332971    -0.0765438    -0.125596     -1.79769e+307 -0.125572     -0.0765424    -0.0332924    -0.0192488    -0.0215482    -0.022686     -0.0206182    -0.0113435    0.00510312    0.0111732     0.00509932    -0.0113465    -0.0206194    -0.0226855    -0.0215467    -0.0192467    -0.00374527   -0.00278133   -0.00152142   6.89259e-05   0.00202718    0.00427056    0.00668289    0.00914011    0.0111245     0.0119519     0.0111238     0.00913904    0.00668167    0.00426942    0.00202628    6.8319e-05    -0.00152171   -0.00278131   -0.00374499  
12.3          -0.0327371    -0.0752023    -0.132698     -1.79769e+307 -0.132705     -0.0752071    -0.0327361    -0.0198531    -0.0226822    -0.0246482    -0.0236503    -0.0145817    0.0023608     0.0083663     0.00235843    -0.014583     -0.0236502    -0.024647     -0.0226805    -0.0198513    -0.00390696   -0.00296427   -0.00170835   -0.000111417  0.00185722    0.00410959    0.00652026    0.0089483     0.0108727     0.0116552     0.0108719     0.00894719    0.00651903    0.00410847    0.00185632    -0.000112049  -0.0017087    -0.00296437   -0.00390685  
12.6          -0.0318608    -0.0707931    -0.126203     -1.79769e+307 -0.126223     -0.0708022    -0.0318627    -0.0205377    -0.0238857    -0.0268441    -0.0272774    -0.0186242    -0.00111085   0.00486669    -0.00110686   -0.0186156    -0.0272682    -0.0268363    -0.0238797    -0.0205328    -0.00398695   -0.0030488    -0.00177746   -0.000149592  0.00185664    0.00414431    0.00657591    0.00899702    0.0108756     0.0116145     0.0108753     0.00899698    0.00657623    0.00414506    0.00185781    -0.000148065  -0.00177569   -0.00304688   -0.00398496  
12.9          -0.0313677    -0.0658214    -0.106463     -1.79769e+307 -0.106458     -0.0658166    -0.0313697    -0.0215422    -0.0253536    -0.0294152    -0.0316348    -0.0235808    -0.0052603    0.000756701   -0.00525942   -0.023579     -0.0316332    -0.0294137    -0.0253531    -0.0215427    -0.00400577   -0.00303238   -0.00170311   3.97999e-06   0.00209965    0.00447112    0.0069635     0.00941032    0.0112642     0.0119626     0.0112634     0.00940921    0.0069623     0.00446997    0.00209862    3.07361e-06   -0.00170392   -0.00303311   -0.00400645  
13.2          -0.0316514    -0.063501     -0.0943199    -1.79769e+307 -0.0943051    -0.0634953    -0.03165      -0.0231558    -0.0274535    -0.0326428    -0.0369564    -0.0298586    -0.0100991    -0.00379541   -0.0100972    -0.0298569    -0.0369548    -0.0326414    -0.027453     -0.0231558    -0.00404677   -0.00298396   -0.00153437   0.000325199   0.00259139    0.00512307    0.00774021    0.0102618     0.012123      0.0127905     0.0121223     0.0102608     0.0077392     0.00512214    0.00259057    0.000324509   -0.00153495   -0.00298444   -0.00404717  
13.5          -0.0324992    -0.0639744    -0.0942879    -1.79769e+307 -0.094279     -0.0639702    -0.0324993    -0.0253948    -0.0303585    -0.0366382    -0.0431271    -0.0374389    -0.0151006    -0.00807961   -0.0150983    -0.0374383    -0.0431261    -0.0366378    -0.0303593    -0.0253959    -0.00407608   -0.00286078   -0.00121013   0.000901667   0.00345432    0.00626066    0.00910088    0.0117717     0.0136873     0.0143394     0.0136865     0.0117707     0.00909972    0.00625945    0.00345312    0.00090048    -0.00121129   -0.0028619    -0.00407715  
13.8          -0.0330445    -0.0653654    -0.0973373    -1.79769e+307 -0.0973734    -0.0653431    -0.0330386    -0.0280248    -0.0340829    -0.0418614    -0.0508437    -0.0473842    -0.0213199    -0.0131318    -0.0213182    -0.0473852    -0.0508428    -0.0418626    -0.0340851    -0.0280266    -0.00425905   -0.00289008   -0.00101978   0.00138754    0.00429897    0.0074692     0.0106169     0.0135004     0.0155092     0.0161569     0.0155084     0.0134992     0.0106155     0.00746755    0.0042972     0.0013857     -0.00102159   -0.00289181   -0.00426065  
14.1          -0.0332255    -0.0663551    -0.0969389    -1.79769e+307 -0.0969368    -0.0663545    -0.0332265    -0.0304163    -0.0378406    -0.0479786    -0.0595137    -0.0591916    -0.0290106    -0.019058     -0.0290093    -0.059192     -0.0595126    -0.0479824    -0.0378459    -0.0304214    -0.00459538   -0.00312436   -0.0010785    0.00160778    0.0049095     0.00851763    0.0120575     0.0152204     0.0173645     0.0180161     0.0173635     0.0152186     0.0120551     0.00851468    0.00490612    0.00160413    -0.00108225   -0.00312809   -0.00459901  
14.4          -0.0332909    -0.0662336    -0.0949966    -1.79769e+307 -0.0950008    -0.0662341    -0.0332903    -0.0320988    -0.0408229    -0.0537915    -0.0682288    -0.0707065    -0.0377056    -0.0254433    -0.037703     -0.0707006    -0.0682233    -0.0537924    -0.0408252    -0.032101     -0.00492997   -0.00342602   -0.00129247   0.00158662    0.00522572    0.00928381    0.0132852     0.0167999     0.0191257     0.0197875     0.0191247     0.0167981     0.0132828     0.0092809     0.00522246    0.00158326    -0.00129571   -0.00342903   -0.00493273  
14.7          -0.0333175    -0.0653323    -0.0928889    -1.79769e+307 -0.0928885    -0.0653299    -0.0333146    -0.0333181    -0.0430442    -0.0584867    -0.0762907    -0.0804927    -0.0472382    -0.0323157    -0.0472339    -0.0804809    -0.0762836    -0.0584869    -0.0430454    -0.0333191    -0.00523639   -0.00374336   -0.00159506   0.00136296    0.00519989    0.00961129    0.0140682     0.0179849     0.0205311     0.0212138     0.02053       0.0179828     0.0140652     0.00960773    0.00519606    0.00135926    -0.0015984    -0.00374628   -0.00523892  