# Probe 0 (0.5 -1.5 0.05)
# Probe 1 (0.5 -1 0.05)
# Probe 2 (0.5 -0.5 0.05)
# Probe 3 (0.5 0 0.05)
# Probe 4 (0.5 0.5 0.05)
# Probe 5 (0.5 1 0.05)
# Probe 6 (0.5 1.5 0.05)
# Probe 7 (2 -1.5 0.05)
# Probe 8 (2 -1.25 0.05)
# Probe 9 (2 -1 0.05)
# Probe 10 (2 -0.75 0.05)
# Probe 11 (2 -0.5 0.05)
# Probe 12 (2 -0.25 0.05)
# Probe 13 (2 0 0.05)
# Probe 14 (2 0.25 0.05)
# Probe 15 (2 0.5 0.05)
# Probe 16 (2 0.75 0.05)
# Probe 17 (2 1 0.05)
# Probe 18 (2 1.25 0.05)
# Probe 19 (2 1.5 0.05)
# Probe 20 (3 -1.5 0.05)
# Probe 21 (3 -1.333 0.05)
# Probe 22 (3 -1.167 0.05)
# Probe 23 (3 -1 0.05)
# Probe 24 (3 -0.833 0.05)
# Probe 25 (3 -0.667 0.05)
# Probe 26 (3 -0.5 0.05)
# Probe 27 (3 -0.333 0.05)
# Probe 28 (3 -0.167 0.05)
# Probe 29 (3 0 0.05)
# Probe 30 (3 0.167 0.05)
# Probe 31 (3 0.333 0.05)
# Probe 32 (3 0.5 0.05)
# Probe 33 (3 0.667 0.05)
# Probe 34 (3 0.833 0.05)
# Probe 35 (3 1 0.05)
# Probe 36 (3 1.167 0.05)
# Probe 37 (3 1.333 0.05)
# Probe 38 (3 1.5 0.05)
# Time        0             1             2             3             4             5             6             7             8             9             10            11            12            13            14            15            16            17            18            19            20            21            22            23            24            25            26            27            28            29            30            31            32            33            34            35            36            37            38           
0             (0 0 0)       (0 0 0)       (0 0 0)       (-1.79769e+307 -1.79769e+307 -1.79769e+307) (0 0 0)       (0 0 0)       (0 0 0)       (0 0 0)       (0 0 0)       (0 0 0)       (0 0 0)       (0 0 0)       (0 0 0)       (0 0 0)       (0 0 0)       (0 0 0)       (0 0 0)       (0 0 0)       (0 0 0)       (0 0 0)       (0 0 0)       (0 0 0)       (0 0 0)       (0 0 0)       (0 0 0)       (0 0 0)       (0 0 0)       (0 0 0)       (0 0 0)       (0 0 0)       (0 0 0)       (0 0 0)       (0 0 0)       (0 0 0)       (0 0 0)       (0 0 0)       (0 0 0)       (0 0 0)       (0 0 0)      
0.3           (0.459309 -0.00243486 -7.97305e-24) (0.506957 -0.00489389 1.55586e-23) (2.11158e-17 3.46033e-21 -3.35775e-40) (-1.79769e+307 -1.79769e+307 -1.79769e+307) (0 0 0)       (0.50696 0.0048874 -1.33651e-22) (0.45931 0.00243344 -3.68993e-23) (0.402495 0.0341791 4.4059e-22) (0.396865 0.0388502 -2.23322e-22) (0.386319 0.045306 2.37433e-23) (0.370528 0.0476427 6.8352e-23) (0.351024 0.0416536 -9.08052e-23) (0.335085 0.0243774 4.33791e-23) (0.328408 5.60782e-07 1.63429e-23) (0.335084 -0.0243763 -4.02869e-23) (0.351024 -0.0416527 7.67936e-23) (0.370527 -0.0476421 -2.95287e-23) (0.386318 -0.0453057 -7.53483e-24) (0.396864 -0.0388501 2.23294e-22) (0.402495 -0.0341791 -2.25866e-22) (0.39322 0.0150994 0) (0.391249 0.0155835 0) (0.388981 0.0155934 0) (0.386515 0.0150502 0) (0.38394 0.0139158 0) (0.381476 0.0121657 0) (0.379311 0.00982089 0) (0.377561 0.00687997 0) (0.376414 0.00354999 0) (0.37585 2.05507e-07 0) (0.376414 -0.00354958 0) (0.37756 -0.00687958 0) (0.379311 -0.00982053 0) (0.381475 -0.0121654 0) (0.383939 -0.0139155 0) (0.386515 -0.01505 0) (0.38898 -0.0155932 0) (0.391248 -0.0155834 0) (0.393219 -0.0150993 0)
0.6           (0.459795 -0.00390662 -8.81813e-24) (0.505601 -0.00698813 1.59014e-23) (1.45242e-17 4.47502e-21 -3.41152e-40) (-1.79769e+307 -1.79769e+307 -1.79769e+307) (0 0 0)       (0.505608 0.00698476 -1.41095e-22) (0.459797 0.00390618 -3.93504e-23) (0.40375 0.0365963 7.41874e-22) (0.399116 0.0414042 -3.83736e-22) (0.387509 0.049363 5.19424e-23) (0.369951 0.0531602 -6.79202e-24) (0.347366 0.0477137 -7.91709e-23) (0.328239 0.0283063 4.37493e-23) (0.320134 5.65378e-07 1.64296e-23) (0.328238 -0.0283052 -4.04081e-23) (0.347365 -0.0477128 6.64287e-23) (0.36995 -0.0531597 -5.60989e-23) (0.387508 -0.0493628 -2.0617e-23) (0.399116 -0.0414042 3.83695e-22) (0.40375 -0.0365965 -1.70042e-22) (0.394118 0.0157281 0) (0.391691 0.0165533 0) (0.389022 0.0167534 0) (0.386202 0.0162886 0) (0.383269 0.0151411 0) (0.380471 0.0132923 0) (0.378016 0.0107649 0) (0.376024 0.00755791 0) (0.374719 0.00390397 0) (0.374086 1.81523e-07 0) (0.374719 -0.00390362 0) (0.376024 -0.00755757 0) (0.378016 -0.0107646 0) (0.38047 -0.0132921 0) (0.383268 -0.0151409 0) (0.386201 -0.0162884 0) (0.389022 -0.0167532 0) (0.39169 -0.0165532 0) (0.394118 -0.0157281 0)
0.9           (0.460496 -0.00515578 -9.32566e-24) (0.504572 -0.00762422 1.58312e-23) (1.14346e-17 4.82011e-21 -3.27703e-40) (-1.79769e+307 -1.79769e+307 -1.79769e+307) (0 0 0)       (0.50458 0.00762772 -1.43041e-22) (0.460497 0.00515633 -4.05388e-23) (0.405305 0.0382764 9.17735e-22) (0.399719 0.0458497 -4.96833e-22) (0.389305 0.0534063 7.48816e-23) (0.369733 0.0592746 -7.22282e-23) (0.343627 0.0548249 -7.27603e-23) (0.320413 0.0331507 4.80578e-23) (0.310375 6.19074e-07 1.81913e-23) (0.320412 -0.0331495 -4.42917e-23) (0.343626 -0.054824 6.01397e-23) (0.369732 -0.0592742 -7.80839e-23) (0.389304 -0.0534063 -3.09888e-23) (0.399719 -0.0458499 4.97e-22) (0.405305 -0.0382767 -1.50818e-22) (0.395089 0.0167946 0) (0.392123 0.0177836 0) (0.389011 0.0180678 0) (0.385799 0.0176395 0) (0.38248 0.0164672 0) (0.37932 0.014519 0) (0.376545 0.011802 0) (0.374286 0.00831023 0) (0.372808 0.00429913 0) (0.372101 1.72474e-07 0) (0.372808 -0.00429879 0) (0.374286 -0.00830991 0) (0.376545 -0.0118017 0) (0.37932 -0.0145188 0) (0.38248 -0.016467 0) (0.385799 -0.0176394 0) (0.389011 -0.0180677 0) (0.392123 -0.0177836 0) (0.395089 -0.0167946 0)
1.2           (0.461366 -0.00625583 -1.00745e-23) (0.504311 -0.00716408 1.59167e-23) (9.29561e-18 7.05017e-21 -3.12425e-40) (-1.79769e+307 -1.79769e+307 -1.79769e+307) (0 0 0)       (0.504314 0.00717137 -1.46633e-22) (0.461367 0.00625703 -4.2559e-23) (0.407153 0.0396483 1.04552e-21) (0.401575 0.0489349 -5.72486e-22) (0.391094 0.0578645 9.12936e-23) (0.370013 0.065784 -1.15228e-22) (0.339961 0.0629632 -7.92151e-23) (0.311768 0.0389472 5.88512e-23) (0.299249 7.39241e-07 2.23369e-23) (0.311767 -0.0389458 -5.40303e-23) (0.339959 -0.0629622 6.42787e-23) (0.370012 -0.0657837 -9.52968e-23) (0.391093 -0.0578646 -3.82732e-23) (0.401575 -0.0489352 5.72398e-22) (0.407153 -0.0396487 -1.55027e-22) (0.395929 0.0182924 0) (0.392488 0.019263 0) (0.388943 0.019541 0) (0.385341 0.0191015 0) (0.381633 0.0178837 0) (0.378092 0.0158299 0) (0.374972 0.0129177 0) (0.372424 0.00912594 0) (0.370757 0.00473024 0) (0.369971 1.86913e-07 0) (0.370756 -0.00472987 0) (0.372424 -0.0091256 0) (0.374972 -0.0129174 0) (0.378092 -0.0158297 0) (0.381632 -0.0178835 0) (0.385341 -0.0191014 0) (0.388943 -0.0195409 0) (0.392488 -0.0192629 0) (0.395929 -0.0182924 0)
1.5           (0.462388 -0.00721556 -1.08713e-23) (0.504924 -0.00597618 1.60462e-23) (7.76661e-18 2.67154e-21 -2.87042e-40) (-1.79769e+307 -1.79769e+307 -1.79769e+307) (0 0 0)       (0.504923 0.00598243 -1.50249e-22) (0.462388 0.00721697 -4.46251e-23) (0.409136 0.0407535 1.1619e-21) (0.403808 0.0511702 -6.36651e-22) (0.39244 0.0626965 1.08642e-22) (0.370976 0.0724409 -1.59248e-22) (0.336569 0.0721138 -8.67399e-23) (0.302459 0.0457803 7.32347e-23) (0.286821 9.13948e-07 2.78907e-23) (0.302458 -0.0457786 -6.6965e-23) (0.336567 -0.0721126 6.84798e-23) (0.370974 -0.0724405 -1.10094e-22) (0.392439 -0.0626968 -4.54356e-23) (0.403807 -0.0511708 6.36673e-22) (0.409135 -0.040754 -1.74296e-22) (0.39645 0.0200731 0) (0.392727 0.0209054 0) (0.388799 0.0211417 0) (0.384845 0.0206603 0) (0.380768 0.0193781 0) (0.376842 0.0172096 0) (0.373357 0.014097 0) (0.370498 0.00999342 0) (0.368625 0.00519163 0) (0.367758 2.14174e-07 0) (0.368625 -0.00519121 0) (0.370498 -0.00999304 0) (0.373357 -0.0140966 0) (0.376842 -0.0172094 0) (0.380767 -0.019378 0) (0.384845 -0.0206602 0) (0.388798 -0.0211417 0) (0.392726 -0.0209054 0) (0.39645 -0.0200731 0)
1.8           (0.463549 -0.00808158 -1.17495e-23) (0.506566 -0.00390478 1.62649e-23) (7.6419e-18 -8.01819e-21 -2.39747e-40) (-1.79769e+307 -1.79769e+307 -1.79769e+307) (0 0 0)       (0.506565 0.00390937 -1.55257e-22) (0.463549 0.00808269 -4.70266e-23) (0.411105 0.0417178 1.27103e-21) (0.405831 0.0531611 -6.96782e-22) (0.394556 0.0665457 1.26701e-22) (0.372354 0.0792602 -2.07723e-22) (0.333749 0.0822469 -9.26718e-23) (0.292595 0.0538034 9.07729e-23) (0.27309 1.18096e-06 3.47246e-23) (0.292594 -0.053801 -8.25873e-23) (0.333747 -0.0822452 7.04854e-23) (0.372352 -0.0792599 -1.25552e-22) (0.394555 -0.0665463 -5.36595e-23) (0.40583 -0.0531619 6.96657e-22) (0.411105 -0.0417184 -1.95304e-22) (0.396587 0.02198 0) (0.392799 0.0226045 0) (0.388553 0.0227967 0) (0.384295 0.0222819 0) (0.37989 0.0209344 0) (0.375596 0.0186458 0) (0.371739 0.0153276 0) (0.368551 0.0109026 0) (0.366458 0.00567796 0) (0.365503 2.81718e-07 0) (0.366458 -0.00567742 0) (0.368551 -0.0109021 0) (0.371738 -0.0153272 0) (0.375596 -0.0186454 0) (0.37989 -0.0209342 0) (0.384294 -0.0222818 0) (0.388553 -0.0227966 0) (0.392798 -0.0226045 0) (0.396587 -0.0219801 0)
2.1           (0.464836 -0.00886093 -1.26214e-23) (0.508519 -0.00189318 1.6666e-23) (8.4749e-18 -9.1483e-21 -1.8624e-40) (-1.79769e+307 -1.79769e+307 -1.79769e+307) (0 0 0)       (0.508517 0.00189665 -1.6134e-22) (0.464836 0.00886171 -4.94215e-23) (0.412959 0.0425872 1.37953e-21) (0.407836 0.0548242 -7.58396e-22) (0.397151 0.0696174 1.45941e-22) (0.374286 0.0857674 -2.70009e-22) (0.331839 0.0932754 -9.26289e-23) (0.282194 0.0633021 1.09847e-22) (0.258004 1.55399e-06 4.22105e-23) (0.282193 -0.0632987 -9.91174e-23) (0.331836 -0.0932729 6.65273e-23) (0.374283 -0.0857676 -1.412e-22) (0.397149 -0.0696185 -6.2778e-23) (0.407836 -0.0548252 7.58418e-22) (0.412959 -0.0425879 -2.18317e-22) (0.396416 0.0238388 0) (0.392653 0.0242972 0) (0.388237 0.0244232 0) (0.383695 0.0239069 0) (0.378996 0.0225221 0) (0.374362 0.0201209 0) (0.37014 0.0165949 0) (0.36662 0.0118413 0) (0.364297 0.00618247 0) (0.363251 3.58885e-07 0) (0.364297 -0.00618178 0) (0.36662 -0.0118406 0) (0.37014 -0.0165944 0) (0.374362 -0.0201205 0) (0.378996 -0.0225218 0) (0.383695 -0.0239067 0) (0.388236 -0.0244231 0) (0.392653 -0.0242972 0) (0.396416 -0.0238389 0)
2.4           (0.466292 -0.00951783 -1.35128e-23) (0.511297 1.29324e-05 1.74775e-23) (8.59496e-18 1.17274e-20 -1.39136e-40) (-1.79769e+307 -1.79769e+307 -1.79769e+307) (0 0 0)       (0.511294 -9.89146e-06 -1.68998e-22) (0.466291 0.00951818 -5.19794e-23) (0.414669 0.0433666 1.49379e-21) (0.409777 0.0562404 -8.24875e-22) (0.399716 0.0723421 1.67625e-22) (0.377025 0.0914987 -3.48816e-22) (0.331258 0.104899 -8.29934e-23) (0.27114 0.0747361 1.29288e-22) (0.24147 2.29222e-06 4.94025e-23) (0.271138 -0.0747309 -1.14585e-22) (0.331253 -0.104896 5.37264e-23) (0.377022 -0.0915002 -1.58209e-22) (0.399715 -0.0723436 -7.31008e-23) (0.409777 -0.0562414 8.24821e-22) (0.414669 -0.0433672 -2.42322e-22) (0.396074 0.0255186 0) (0.392301 0.0259173 0) (0.387842 0.0259918 0) (0.383079 0.0254843 0) (0.378089 0.0241038 0) (0.373134 0.0216165 0) (0.368565 0.0178868 0) (0.364724 0.0127994 0) (0.362168 0.0066995 0) (0.361027 4.51973e-07 0) (0.362168 -0.00669864 0) (0.364723 -0.0127986 0) (0.368565 -0.0178861 0) (0.373133 -0.021616 0) (0.378089 -0.0241035 0) (0.383079 -0.0254841 0) (0.387842 -0.0259918 0) (0.3923 -0.0259173 0) (0.396074 -0.0255186 0)
2.7           (0.467963 -0.00976145 -1.43756e-23) (0.515265 0.00214055 1.83845e-23) (6.42504e-18 6.50434e-20 -1.29559e-40) (-1.79769e+307 -1.79769e+307 -1.79769e+307) (0 0 0)       (0.515262 -0.0021383 -1.77827e-22) (0.467962 0.0097614 -5.45365e-23) (0.416207 0.0440869 1.60625e-21) (0.411634 0.0574708 -8.93325e-22) (0.402275 0.0746944 1.91976e-22) (0.380336 0.0964635 -4.46873e-22) (0.332419 0.116562 -6.09401e-23) (0.25927 0.0883594 1.47577e-22) (0.222981 3.20971e-06 5.69833e-23) (0.259267 -0.0883522 -1.29099e-22) (0.332411 -0.116562 3.01232e-23) (0.380334 -0.096466 -1.76222e-22) (0.402275 -0.0746956 -8.49848e-23) (0.411634 -0.0574715 8.93289e-22) (0.416207 -0.0440873 -2.6358e-22) (0.395705 0.0269629 0) (0.391834 0.0274033 0) (0.387357 0.0274903 0) (0.382456 0.0269984 0) (0.37719 0.0256493 0) (0.371906 0.0231136 0) (0.367004 0.0191949 0) (0.362863 0.0137708 0) (0.360086 0.00722566 0) (0.358848 4.92185e-07 0) (0.360086 -0.00722474 0) (0.362863 -0.0137701 0) (0.367004 -0.0191943 0) (0.371905 -0.0231132 0) (0.377189 -0.025649 0) (0.382456 -0.0269983 0) (0.387357 -0.0274902 0) (0.391833 -0.0274032 0) (0.395704 -0.0269629 0)
3             (0.469686 -0.00967454 -1.518e-23) (0.520105 0.00409419 1.97479e-23) (1.10268e-18 1.30463e-19 -1.90002e-40) (-1.79769e+307 -1.79769e+307 -1.79769e+307) (0 0 0)       (0.520103 -0.00409274 -1.87773e-22) (0.469685 0.00967414 -5.69897e-23) (0.417567 0.0447726 1.71359e-21) (0.413419 0.058518 -9.60158e-22) (0.404791 0.0766798 2.16374e-22) (0.383831 0.100833 -5.47158e-22) (0.335414 0.127547 -3.03775e-23) (0.247223 0.103647 1.6223e-22) (0.202454 3.7975e-06 6.32604e-23) (0.247217 -0.103639 -1.38725e-22) (0.335408 -0.127553 -4.86733e-25) (0.383831 -0.100834 -1.93985e-22) (0.404791 -0.0766801 -9.70069e-23) (0.413418 -0.0585182 9.60139e-22) (0.417567 -0.0447728 -2.81183e-22) (0.395395 0.0281522 0) (0.391352 0.0287111 0) (0.386823 0.0288796 0) (0.381824 0.0284374 0) (0.376318 0.027138 0) (0.370693 0.02459 0) (0.365452 0.0205091 0) (0.361041 0.0147513 0) (0.358067 0.00775854 0) (0.356733 4.72358e-07 0) (0.358067 -0.00775767 0) (0.361041 -0.0147506 0) (0.365452 -0.0205086 0) (0.370693 -0.0245896 0) (0.376318 -0.0271377 0) (0.381823 -0.0284372 0) (0.386823 -0.0288794 0) (0.391352 -0.028711 0) (0.395394 -0.0281521 0)
3.3           (0.471418 -0.0100726 -1.58878e-23) (0.525758 0.00566234 2.13333e-23) (-6.35168e-18 1.83569e-19 -3.32054e-40) (-1.79769e+307 -1.79769e+307 -1.79769e+307) (0 0 0)       (0.525756 -0.0056615 -1.98061e-22) (0.471417 0.0100717 -5.91077e-23) (0.418786 0.0454246 1.81279e-21) (0.415124 0.0593866 -1.02332e-21) (0.407182 0.0783393 2.4078e-22) (0.387472 0.104676 -6.59812e-22) (0.340059 0.137747 2.17194e-23) (0.235817 0.119496 1.71067e-22) (0.179863 3.81409e-06 6.44069e-23) (0.235807 -0.119491 -1.3714e-22) (0.34006 -0.137747 -5.16333e-23) (0.387471 -0.104675 -2.07552e-22) (0.407181 -0.0783389 -1.09281e-22) (0.415123 -0.0593866 1.02333e-21) (0.418785 -0.0454247 -2.95698e-22) (0.395165 0.0291001 0) (0.390924 0.0298212 0) (0.386305 0.0301244 0) (0.381198 0.029781 0) (0.375482 0.0285605 0) (0.369515 0.0260335 0) (0.36391 0.0218277 0) (0.359248 0.0157504 0) (0.356115 0.00830414 0) (0.354688 4.4309e-07 0) (0.356115 -0.00830333 0) (0.359248 -0.0157497 0) (0.36391 -0.0218272 0) (0.369515 -0.026033 0) (0.375482 -0.0285601 0) (0.381198 -0.0297807 0) (0.386304 -0.0301242 0) (0.390924 -0.029821 0) (0.395165 -0.0290999 0)
3.6           (0.473283 -0.0110664 -1.65805e-23) (0.53243 0.00640119 2.31926e-23) (-1.51146e-17 2.10877e-19 -5.69209e-40) (-1.79769e+307 -1.79769e+307 -1.79769e+307) (0 0 0)       (0.532428 -0.00640085 -2.09257e-22) (0.473282 0.0110652 -6.11309e-23) (0.419932 0.0460036 1.90743e-21) (0.416676 0.0601204 -1.08459e-21) (0.409418 0.0797033 2.65167e-22) (0.391253 0.107964 -7.87057e-22) (0.34591 0.146928 8.77302e-23) (0.225737 0.134171 1.75369e-22) (0.154806 3.5777e-06 6.41932e-23) (0.225724 -0.13417 -1.30909e-22) (0.345912 -0.146921 -1.16232e-22) (0.391251 -0.107962 -2.1713e-22) (0.409417 -0.0797027 -1.21861e-22) (0.416675 -0.0601204 1.08546e-21) (0.419931 -0.0460037 -3.09495e-22) (0.395006 0.0298352 0) (0.390586 0.0307338 0) (0.385845 0.0312081 0) (0.380612 0.0310073 0) (0.374688 0.0299055 0) (0.368384 0.0274375 0) (0.362385 0.0231555 0) (0.357472 0.016792 0) (0.354217 0.00887887 0) (0.352697 4.31422e-07 0) (0.354217 -0.00887808 0) (0.357472 -0.0167913 0) (0.362385 -0.023155 0) (0.368383 -0.027437 0) (0.374687 -0.0299051 0) (0.380612 -0.0310069 0) (0.385844 -0.0312078 0) (0.390585 -0.0307336 0) (0.395006 -0.029835 0)
3.9           (0.475287 -0.0116847 -1.73674e-23) (0.539593 0.00570832 2.53996e-23) (-2.37484e-17 1.85691e-19 -8.59305e-40) (-1.79769e+307 -1.79769e+307 -1.79769e+307) (0 0 0)       (0.53959 -0.00570928 -2.22996e-22) (0.475286 0.0116838 -6.35491e-23) (0.421047 0.0464712 1.99669e-21) (0.418002 0.0607597 -1.14182e-21) (0.411507 0.0807779 2.8762e-22) (0.395093 0.110644 -9.15708e-22) (0.352585 0.154433 1.56992e-22) (0.21737 0.146265 1.73623e-22) (0.12757 3.27352e-06 6.27963e-23) (0.217363 -0.14626 -1.19497e-22) (0.352584 -0.154427 -1.82717e-22) (0.395091 -0.110641 -2.22597e-22) (0.411505 -0.0807771 -1.33256e-22) (0.418001 -0.0607596 1.14182e-21) (0.421046 -0.0464713 -3.21791e-22) (0.394906 0.0303887 0) (0.390339 0.0314633 0) (0.385465 0.0321271 0) (0.380098 0.0320984 0) (0.373959 0.0311528 0) (0.367322 0.0287855 0) (0.360909 0.024488 0) (0.355725 0.017899 0) (0.352369 0.00950254 0) (0.350755 4.27718e-07 0) (0.352369 -0.00950175 0) (0.355724 -0.0178984 0) (0.360909 -0.0244875 0) (0.367322 -0.028785 0) (0.373959 -0.0311523 0) (0.380097 -0.032098 0) (0.385465 -0.0321267 0) (0.390339 -0.0314629 0) (0.394906 -0.0303884 0)
4.2           (0.477311 -0.0118517 -1.8139e-23) (0.546287 0.00419243 2.78842e-23) (-3.10963e-17 1.02754e-19 -1.11088e-39) (-1.79769e+307 -1.79769e+307 -1.79769e+307) (0 0 0)       (0.546284 -0.00419543 -2.37455e-22) (0.47731 0.0118512 -6.60364e-23) (0.422077 0.0468351 2.07465e-21) (0.41912 0.0612894 -1.1915e-21) (0.413452 0.0815764 3.07653e-22) (0.39893 0.112664 -1.03442e-21) (0.359673 0.159904 2.20129e-22) (0.210388 0.155234 1.65126e-22) (0.0987061 2.8209e-06 5.77165e-23) (0.210391 -0.155224 -1.01646e-22) (0.359671 -0.159898 -2.41691e-22) (0.398926 -0.112661 -2.27786e-22) (0.41345 -0.0815758 -1.43634e-22) (0.419118 -0.0612893 1.19148e-21) (0.422076 -0.0468352 -3.32571e-22) (0.394851 0.0307918 0) (0.390177 0.0320359 0) (0.385178 0.0328947 0) (0.379678 0.0330555 0) (0.373328 0.032295 0) (0.366365 0.0300722 0) (0.359533 0.0258292 0) (0.354031 0.0191046 0) (0.350548 0.010212 0) (0.348831 4.42887e-07 0) (0.350548 -0.0102112 0) (0.354031 -0.019104 0) (0.359533 -0.0258286 0) (0.366365 -0.0300715 0) (0.373327 -0.0322943 0) (0.379678 -0.0330549 0) (0.385177 -0.0328942 0) (0.390176 -0.0320355 0) (0.39485 -0.0307915 0)
4.5           (0.479245 -0.01195 -1.87355e-23) (0.552929 0.00230625 3.04791e-23) (-3.36271e-17 -1.71398e-20 -1.26335e-39) (-1.79769e+307 -1.79769e+307 -1.79769e+307) (0 0 0)       (0.552926 -0.00231023 -2.50919e-22) (0.479243 0.0119499 -6.82295e-23) (0.422969 0.0471204 2.14514e-21) (0.420101 0.0617011 -1.23539e-21) (0.415242 0.0821597 3.26332e-22) (0.402659 0.114061 -1.14234e-21) (0.366556 0.163426 2.79629e-22) (0.204415 0.161015 1.52463e-22) (0.069419 1.94109e-06 4.92346e-23) (0.204421 -0.161006 -7.90448e-23) (0.366553 -0.163418 -2.96221e-22) (0.402654 -0.114059 -2.33995e-22) (0.41524 -0.0821593 -1.53347e-22) (0.420099 -0.0617012 1.23537e-21) (0.422968 -0.0471207 -3.43484e-22) (0.394826 0.0310877 0) (0.390084 0.0324897 0) (0.384981 0.0335413 0) (0.37936 0.0338999 0) (0.372813 0.033343 0) (0.365537 0.0313054 0) (0.358303 0.0271914 0) (0.352417 0.0204413 0) (0.348684 0.0110526 0) (0.346828 4.7891e-07 0) (0.348684 -0.0110517 0) (0.352417 -0.0204406 0) (0.358303 -0.0271907 0) (0.365537 -0.0313045 0) (0.372813 -0.0333423 0) (0.37936 -0.0338992 0) (0.384981 -0.0335407 0) (0.390084 -0.0324893 0) (0.394826 -0.0310874 0)
4.8           (0.48095 -0.0119404 -1.91357e-23) (0.559826 -0.000338316 3.29117e-23) (-3.38141e-17 -1.52007e-19 -1.33921e-39) (-1.79769e+307 -1.79769e+307 -1.79769e+307) (0 0 0)       (0.559825 0.000335338 -2.63425e-22) (0.480949 0.01194 -7.01441e-23) (0.423735 0.0473364 2.21262e-21) (0.421002 0.062038 -1.27554e-21) (0.416839 0.0825775 3.44089e-22) (0.406124 0.114894 -1.24015e-21) (0.372789 0.165178 3.35217e-22) (0.199435 0.163906 1.37479e-22) (0.0410801 4.69642e-07 3.89827e-23) (0.199442 -0.163899 -5.52806e-23) (0.372782 -0.165172 -3.46574e-22) (0.406119 -0.114893 -2.41025e-22) (0.416836 -0.0825774 -1.62574e-22) (0.421 -0.0620383 1.2755e-21) (0.423734 -0.0473367 -3.5759e-22) (0.394819 0.0313192 0) (0.390045 0.0328619 0) (0.384867 0.034095 0) (0.379138 0.0346517 0) (0.372421 0.0343063 0) (0.364859 0.0324858 0) (0.357264 0.028574 0) (0.350926 0.021913 0) (0.346709 0.0120471 0) (0.34463 5.40607e-07 0) (0.346709 -0.0120461 0) (0.350926 -0.0219122 0) (0.357264 -0.028573 0) (0.364859 -0.0324847 0) (0.37242 -0.0343054 0) (0.379138 -0.0346509 0) (0.384867 -0.0340944 0) (0.390044 -0.0328614 0) (0.394819 -0.0313189 0)
5.1           (0.482359 -0.0121748 -1.94809e-23) (0.566591 -0.0043505 3.47905e-23) (-2.75984e-17 -2.67308e-19 -1.32276e-39) (-1.79769e+307 -1.79769e+307 -1.79769e+307) (0 0 0)       (0.566589 0.00434897 -2.74855e-22) (0.482359 0.012174 -7.18205e-23) (0.424401 0.0475112 2.27026e-21) (0.421867 0.0623366 -1.30854e-21) (0.418196 0.0828697 3.59154e-22) (0.409214 0.115217 -1.3198e-21) (0.378156 0.165396 3.82945e-22) (0.195383 0.164429 1.22318e-22) (0.0147788 -1.53937e-06 2.84438e-23) (0.195392 -0.164423 -3.31018e-23) (0.378147 -0.165395 -3.89581e-22) (0.409208 -0.115216 -2.47783e-22) (0.418193 -0.0828698 -1.70433e-22) (0.421865 -0.062337 1.30855e-21) (0.4244 -0.0475116 -3.71114e-22) (0.394825 0.0315199 0) (0.390041 0.0331872 0) (0.384823 0.0345812 0) (0.379004 0.0353289 0) (0.372147 0.0351956 0) (0.364347 0.0336152 0) (0.356465 0.0299719 0) (0.349619 0.0235075 0) (0.344579 0.0132014 0) (0.342131 6.40125e-07 0) (0.344579 -0.0132003 0) (0.349619 -0.0235064 0) (0.356465 -0.0299707 0) (0.364347 -0.0336139 0) (0.372147 -0.0351945 0) (0.379003 -0.035328 0) (0.384823 -0.0345805 0) (0.390041 -0.0331866 0) (0.394824 -0.0315195 0)
5.4           (0.483559 -0.0129866 -1.97976e-23) (0.57225 -0.0098386 3.63587e-23) (-1.73077e-17 -3.29611e-19 -1.26341e-39) (-1.79769e+307 -1.79769e+307 -1.79769e+307) (0 0 0)       (0.572246 0.00983591 -2.85653e-22) (0.483558 0.0129853 -7.35154e-23) (0.424896 0.0477621 2.31815e-21) (0.422723 0.0626 -1.33441e-21) (0.41927 0.0830692 3.7045e-22) (0.411872 0.115061 -1.37675e-21) (0.38247 0.164393 4.16435e-22) (0.192157 0.163073 1.08448e-22) (-0.00887686 -3.87401e-06 1.93517e-23) (0.192164 -0.163071 -1.48883e-23) (0.382464 -0.164393 -4.1893e-22) (0.411866 -0.115061 -2.53464e-22) (0.419266 -0.0830695 -1.76307e-22) (0.422721 -0.0626005 1.33435e-21) (0.424895 -0.0477626 -3.81407e-22) (0.394844 0.0317105 0) (0.39006 0.0334917 0) (0.384835 0.0350223 0) (0.37895 0.0359467 0) (0.37199 0.0360225 0) (0.364015 0.034698 0) (0.355944 0.0313779 0) (0.34855 0.0252017 0) (0.342261 0.0145068 0) (0.339221 7.90914e-07 0) (0.342261 -0.0145053 0) (0.348551 -0.0252002 0) (0.355945 -0.0313763 0) (0.364015 -0.0346966 0) (0.37199 -0.0360212 0) (0.37895 -0.0359457 0) (0.384835 -0.0350215 0) (0.390059 -0.0334912 0) (0.394843 -0.0317101 0)
5.7           (0.484768 -0.0140287 -2.0241e-23) (0.576282 -0.0156284 3.78393e-23) (-4.0031e-18 -2.66982e-19 -1.17567e-39) (-1.79769e+307 -1.79769e+307 -1.79769e+307) (0 0 0)       (0.576278 0.0156211 -2.96185e-22) (0.484768 0.0140269 -7.54325e-23) (0.425141 0.0481998 2.3582e-21) (0.423548 0.0628298 -1.355e-21) (0.420063 0.0831849 3.77693e-22) (0.413997 0.114454 -1.41027e-21) (0.385894 0.162316 4.36158e-22) (0.189734 0.160314 9.68464e-23) (-0.0294945 -6.46625e-06 1.23043e-23) (0.189738 -0.160318 -1.71729e-24) (0.385889 -0.162316 -4.35825e-22) (0.41399 -0.114454 -2.57783e-22) (0.420059 -0.0831854 -1.80104e-22) (0.423546 -0.0628304 1.35499e-21) (0.42514 -0.0482004 -3.86715e-22) (0.394875 0.0319008 0) (0.390098 0.0337873 0) (0.384886 0.0354346 0) (0.378972 0.0365154 0) (0.371947 0.0367941 0) (0.363871 0.0357347 0) (0.355728 0.0327773 0) (0.347763 0.0269574 0) (0.339739 0.0159352 0) (0.335792 9.91616e-07 0) (0.339738 -0.0159334 0) (0.347763 -0.0269554 0) (0.355729 -0.0327752 0) (0.363871 -0.035733 0) (0.371947 -0.0367927 0) (0.378971 -0.0365144 0) (0.384885 -0.0354338 0) (0.390097 -0.0337867 0) (0.394875 -0.0319003 0)
6             (0.486081 -0.0150868 -2.07459e-23) (0.579422 -0.0208669 3.92113e-23) (5.41316e-18 -1.61319e-19 -1.11911e-39) (-1.79769e+307 -1.79769e+307 -1.79769e+307) (0 0 0)       (0.579423 0.0208559 -3.05896e-22) (0.48608 0.0150845 -7.74549e-23) (0.42519 0.0487838 2.38652e-21) (0.424228 0.0630992 -1.36785e-21) (0.420638 0.0831906 3.80114e-22) (0.415448 0.113527 -1.41843e-21) (0.388597 0.159283 4.42316e-22) (0.188059 0.156581 8.79785e-23) (-0.0469728 -9.09221e-06 7.24899e-24) (0.188065 -0.156589 6.49287e-24) (0.38859 -0.159284 -4.40125e-22) (0.415442 -0.113528 -2.59685e-22) (0.420634 -0.0831914 -1.81366e-22) (0.424226 -0.0630998 1.36783e-21) (0.425189 -0.0487846 -3.8782e-22) (0.394912 0.0320903 0) (0.390159 0.0340717 0) (0.384964 0.0358231 0) (0.379058 0.0370372 0) (0.372017 0.0375074 0) (0.363914 0.0367159 0) (0.355826 0.0341456 0) (0.34728 0.028721 0) (0.337016 0.0174383 0) (0.331755 1.23563e-06 0) (0.337016 -0.0174359 0) (0.34728 -0.0287183 0) (0.355827 -0.0341431 0) (0.363913 -0.0367139 0) (0.372016 -0.0375059 0) (0.379058 -0.0370361 0) (0.384963 -0.0358222 0) (0.390158 -0.0340711 0) (0.394911 -0.0320898 0)
6.3           (0.487455 -0.0161638 -2.12776e-23) (0.582213 -0.0258269 4.04467e-23) (9.67079e-18 -2.59219e-20 -1.06615e-39) (-1.79769e+307 -1.79769e+307 -1.79769e+307) (0 0 0)       (0.582219 0.0258179 -3.14105e-22) (0.487455 0.0161617 -7.93846e-23) (0.425159 0.0493308 2.41064e-21) (0.424645 0.0634403 -1.37779e-21) (0.421001 0.0831259 3.80028e-22) (0.416267 0.112442 -1.41049e-21) (0.390337 0.15575 4.39894e-22) (0.187166 0.152182 8.14603e-23) (-0.0614134 -1.16257e-05 3.9228e-24) (0.187176 -0.152192 1.06855e-23) (0.39033 -0.155756 -4.36484e-22) (0.416261 -0.112444 -2.60724e-22) (0.420998 -0.0831269 -1.81292e-22) (0.424642 -0.0634411 1.37776e-21) (0.425157 -0.0493318 -3.8828e-22) (0.394947 0.0322747 0) (0.390248 0.0343405 0) (0.385067 0.0361878 0) (0.379199 0.0375134 0) (0.372191 0.0381569 0) (0.364134 0.0376288 0) (0.356226 0.0354543 0) (0.347099 0.0304332 0) (0.334115 0.0189547 0) (0.327044 1.48435e-06 0) (0.334114 -0.0189517 0) (0.3471 -0.0304299 0) (0.356226 -0.0354514 0) (0.364133 -0.0376266 0) (0.37219 -0.0381552 0) (0.379198 -0.0375122 0) (0.385066 -0.0361869 0) (0.390247 -0.0343399 0) (0.394946 -0.0322743 0)
6.6           (0.488839 -0.0172065 -2.17572e-23) (0.584448 -0.0308117 4.13333e-23) (1.07325e-17 6.46586e-20 -1.01605e-39) (-1.79769e+307 -1.79769e+307 -1.79769e+307) (0 0 0)       (0.584453 0.0308081 -3.20378e-22) (0.488839 0.0172049 -8.10425e-23) (0.425135 0.0496811 2.4259e-21) (0.424833 0.0637249 -1.38329e-21) (0.421159 0.0829887 3.77271e-22) (0.416592 0.111197 -1.38676e-21) (0.391057 0.15209 4.28734e-22) (0.187106 0.147343 7.7229e-23) (-0.0730266 -1.38941e-05 2.105e-24) (0.187119 -0.147356 1.15587e-23) (0.391053 -0.152096 -4.24912e-22) (0.416588 -0.111199 -2.60713e-22) (0.421155 -0.0829899 -1.79782e-22) (0.424831 -0.0637259 1.38323e-21) (0.425133 -0.0496823 -3.89299e-22) (0.394978 0.0324471 0) (0.390367 0.0345854 0) (0.385199 0.0365243 0) (0.379383 0.0379451 0) (0.372461 0.0387378 0) (0.364518 0.0384587 0) (0.356897 0.0366732 0) (0.347195 0.0320409 0) (0.331071 0.0204218 0) (0.321635 1.69756e-06 0) (0.331071 -0.0204183 0) (0.347195 -0.0320371 0) (0.356896 -0.03667 0) (0.364517 -0.0384563 0) (0.37246 -0.0387361 0) (0.379382 -0.0379439 0) (0.385198 -0.0365235 0) (0.390366 -0.0345849 0) (0.394977 -0.0324467 0)
6.9           (0.490195 -0.0182336 -2.21843e-23) (0.586187 -0.0354427 4.20838e-23) (8.62703e-18 1.14426e-19 -9.9791e-40) (-1.79769e+307 -1.79769e+307 -1.79769e+307) (0 0 0)       (0.586188 0.0354431 -3.25732e-22) (0.490195 0.0182327 -8.25447e-23) (0.425213 0.0498925 2.43706e-21) (0.42493 0.0637956 -1.38503e-21) (0.421119 0.0827262 3.73117e-22) (0.416436 0.109737 -1.35253e-21) (0.391031 0.148372 4.10753e-22) (0.187769 0.142285 7.50707e-23) (-0.0820771 -1.57653e-05 1.54429e-24) (0.187781 -0.142301 9.73262e-24) (0.391031 -0.148378 -4.07224e-22) (0.416432 -0.109741 -2.60419e-22) (0.421116 -0.0827281 -1.77488e-22) (0.424927 -0.0637969 1.38498e-21) (0.425211 -0.0498937 -3.89484e-22) (0.395003 0.0326113 0) (0.390514 0.0348013 0) (0.385368 0.0368261 0) (0.3796 0.0383332 0) (0.372807 0.0392496 0) (0.365047 0.0391923 0) (0.357801 0.0377717 0) (0.347523 0.0334982 0) (0.327931 0.0217842 0) (0.315549 1.84367e-06 0) (0.327931 -0.0217803 0) (0.347523 -0.033494 0) (0.3578 -0.0377683 0) (0.365045 -0.0391898 0) (0.372805 -0.0392479 0) (0.379599 -0.0383321 0) (0.385367 -0.0368254 0) (0.390513 -0.0348008 0) (0.395002 -0.032611 0)
7.2           (0.491504 -0.0192765 -2.2605e-23) (0.58815 -0.0397627 4.28909e-23) (5.96792e-18 1.09912e-19 -1.01049e-39) (-1.79769e+307 -1.79769e+307 -1.79769e+307) (0 0 0)       (0.588147 0.0397627 -3.30855e-22) (0.491504 0.0192761 -8.40063e-23) (0.425537 0.05007 2.44357e-21) (0.424817 0.0638308 -1.38223e-21) (0.42089 0.0823646 3.671e-22) (0.415759 0.108088 -1.30822e-21) (0.390781 0.144341 3.86703e-22) (0.188894 0.137211 7.51857e-23) (-0.0888109 -1.712e-05 2.17214e-24) (0.188906 -0.13723 5.41636e-24) (0.390781 -0.144348 -3.84136e-22) (0.415756 -0.108093 -2.59294e-22) (0.420887 -0.0823672 -1.74251e-22) (0.424815 -0.0638324 1.38221e-21) (0.425536 -0.050071 -3.87088e-22) (0.395008 0.0327728 0) (0.390678 0.0349876 0) (0.385582 0.0370835 0) (0.37985 0.0386722 0) (0.373208 0.0396901 0) (0.365697 0.039819 0) (0.358898 0.0387209 0) (0.348041 0.0347631 0) (0.324752 0.0229957 0) (0.308851 1.89848e-06 0) (0.324752 -0.0229915 0) (0.34804 -0.0347587 0) (0.358896 -0.0387174 0) (0.365694 -0.0398166 0) (0.373206 -0.0396886 0) (0.379848 -0.0386712 0) (0.385581 -0.0370829 0) (0.390677 -0.0349873 0) (0.395007 -0.0327726 0)