# y+ ()       
# Time        	patch         	min           	max           	average       
0             	bodyWall	0.000000e+00	0.000000e+00	0.000000e+00
0             	actuatorSlot_top	0.000000e+00	0.000000e+00	0.000000e+00
0             	actuatorSlot_bottom	0.000000e+00	0.000000e+00	0.000000e+00
0.3           	bodyWall	1.307250e-01	6.021972e+00	2.295916e+00
0.3           	actuatorSlot_top	4.434621e+00	4.476306e+00	4.449845e+00
0.3           	actuatorSlot_bottom	4.435227e+00	4.476773e+00	4.450372e+00
0.6           	bodyWall	1.284755e-01	5.360638e+00	1.973099e+00
0.6           	actuatorSlot_top	3.380735e+00	3.609194e+00	3.473953e+00
0.6           	actuatorSlot_bottom	3.381632e+00	3.609741e+00	3.474744e+00
0.9           	bodyWall	1.633975e-01	4.933987e+00	1.752476e+00
0.9           	actuatorSlot_top	2.393308e+00	2.802400e+00	2.577715e+00
0.9           	actuatorSlot_bottom	2.394480e+00	2.802991e+00	2.578668e+00
1.2           	bodyWall	1.601604e-01	4.602750e+00	1.610630e+00
1.2           	actuatorSlot_top	1.611709e+00	2.162148e+00	1.868868e+00
1.2           	actuatorSlot_bottom	1.613353e+00	2.162961e+00	1.870165e+00
1.5           	bodyWall	1.580819e-01	4.362644e+00	1.514268e+00
1.5           	actuatorSlot_top	9.982711e-01	1.679048e+00	1.324944e+00
1.5           	actuatorSlot_bottom	9.998542e-01	1.679745e+00	1.326145e+00
1.8           	bodyWall	1.565686e-01	4.072132e+00	1.440483e+00
1.8           	actuatorSlot_top	6.139256e-01	1.312091e+00	9.236073e-01
1.8           	actuatorSlot_bottom	6.142212e-01	1.312846e+00	9.245920e-01
2.1           	bodyWall	1.553291e-01	3.979805e+00	1.376548e+00
2.1           	actuatorSlot_top	6.276221e-01	1.017306e+00	7.501007e-01
2.1           	actuatorSlot_bottom	6.279353e-01	1.018045e+00	7.502956e-01
2.4           	bodyWall	1.542712e-01	3.757668e+00	1.329669e+00
2.4           	actuatorSlot_top	6.277541e-01	8.391970e-01	7.280757e-01
2.4           	actuatorSlot_bottom	6.280079e-01	8.386033e-01	7.279897e-01
2.7           	bodyWall	1.532718e-01	3.648693e+00	1.291486e+00
2.7           	actuatorSlot_top	6.305399e-01	8.878508e-01	7.436546e-01
2.7           	actuatorSlot_bottom	6.305669e-01	8.873570e-01	7.434244e-01
3             	bodyWall	1.523158e-01	3.570287e+00	1.255137e+00
3             	actuatorSlot_top	6.319197e-01	9.119604e-01	7.709450e-01
3             	actuatorSlot_bottom	6.320899e-01	9.116325e-01	7.706941e-01
3.3           	bodyWall	9.031666e-02	3.483300e+00	1.223639e+00
3.3           	actuatorSlot_top	6.335292e-01	9.092533e-01	7.809838e-01
3.3           	actuatorSlot_bottom	6.335298e-01	9.090360e-01	7.807789e-01
3.6           	bodyWall	5.331560e-02	3.448742e+00	1.197703e+00
3.6           	actuatorSlot_top	6.374775e-01	8.986753e-01	7.817530e-01
3.6           	actuatorSlot_bottom	6.374321e-01	8.985174e-01	7.815813e-01
3.9           	bodyWall	7.181881e-02	3.416904e+00	1.169427e+00
3.9           	actuatorSlot_top	6.399992e-01	8.901964e-01	7.831292e-01
3.9           	actuatorSlot_bottom	6.399194e-01	8.900558e-01	7.829615e-01
4.2           	bodyWall	5.598791e-02	3.384371e+00	1.148575e+00
4.2           	actuatorSlot_top	6.456057e-01	8.797444e-01	7.848553e-01
4.2           	actuatorSlot_bottom	6.455018e-01	8.796317e-01	7.847045e-01
4.5           	bodyWall	1.151969e-01	3.354088e+00	1.134438e+00
4.5           	actuatorSlot_top	6.508521e-01	8.638491e-01	7.815890e-01
4.5           	actuatorSlot_bottom	6.507386e-01	8.637675e-01	7.814645e-01
4.8           	bodyWall	5.958993e-02	3.327139e+00	1.121388e+00
4.8           	actuatorSlot_top	6.536850e-01	8.463771e-01	7.749857e-01
4.8           	actuatorSlot_bottom	6.535793e-01	8.463181e-01	7.748859e-01
5.1           	bodyWall	4.842007e-02	3.303974e+00	1.105719e+00
5.1           	actuatorSlot_top	6.540119e-01	8.300543e-01	7.669445e-01
5.1           	actuatorSlot_bottom	6.539199e-01	8.300125e-01	7.668662e-01
5.4           	bodyWall	8.411278e-02	3.285471e+00	1.100876e+00
5.4           	actuatorSlot_top	6.515167e-01	8.149386e-01	7.576285e-01
5.4           	actuatorSlot_bottom	6.514327e-01	8.149070e-01	7.575632e-01
5.7           	bodyWall	9.929901e-02	3.269856e+00	1.078333e+00
5.7           	actuatorSlot_top	6.498323e-01	8.042885e-01	7.509284e-01
5.7           	actuatorSlot_bottom	6.497629e-01	8.042651e-01	7.508761e-01
6             	bodyWall	4.913210e-02	3.253893e+00	1.078441e+00
6             	actuatorSlot_top	6.490927e-01	7.947243e-01	7.450799e-01
6             	actuatorSlot_bottom	6.490317e-01	7.947113e-01	7.450385e-01
6.3           	bodyWall	2.024470e-02	3.237241e+00	1.055457e+00
6.3           	actuatorSlot_top	6.476896e-01	7.847657e-01	7.382814e-01
6.3           	actuatorSlot_bottom	6.476358e-01	7.847547e-01	7.382459e-01
6.6           	bodyWall	3.495523e-02	3.221441e+00	1.057831e+00
6.6           	actuatorSlot_top	6.447180e-01	7.744385e-01	7.301286e-01
6.6           	actuatorSlot_bottom	6.446710e-01	7.744265e-01	7.300968e-01
6.9           	bodyWall	7.937574e-02	3.207478e+00	1.048215e+00
6.9           	actuatorSlot_top	6.401552e-01	7.660975e-01	7.222028e-01
6.9           	actuatorSlot_bottom	6.401098e-01	7.660814e-01	7.221703e-01
7.2           	bodyWall	6.528374e-02	3.195533e+00	1.052258e+00
7.2           	actuatorSlot_top	6.347899e-01	7.592799e-01	7.147626e-01
7.2           	actuatorSlot_bottom	6.347479e-01	7.592657e-01	7.147340e-01
7.5           	bodyWall	1.165226e-01	3.185065e+00	1.045433e+00
7.5           	actuatorSlot_top	6.298806e-01	7.545114e-01	7.087329e-01
7.5           	actuatorSlot_bottom	6.298437e-01	7.544999e-01	7.087088e-01
7.8           	bodyWall	1.225264e-01	3.175528e+00	1.040069e+00
7.8           	actuatorSlot_top	6.255031e-01	7.511470e-01	7.037414e-01
7.8           	actuatorSlot_bottom	6.254697e-01	7.511358e-01	7.037194e-01
8.1           	bodyWall	1.164991e-01	3.166855e+00	1.044684e+00
8.1           	actuatorSlot_top	6.211701e-01	7.481931e-01	6.990720e-01
8.1           	actuatorSlot_bottom	6.211392e-01	7.481825e-01	6.990522e-01
8.4           	bodyWall	4.939305e-02	3.158093e+00	1.029531e+00
8.4           	actuatorSlot_top	6.187554e-01	7.477405e-01	6.965918e-01
8.4           	actuatorSlot_bottom	6.187167e-01	7.477175e-01	6.965638e-01
8.7           	bodyWall	1.119855e-01	3.148712e+00	1.037328e+00
8.7           	actuatorSlot_top	6.162987e-01	7.479173e-01	6.941450e-01
8.7           	actuatorSlot_bottom	6.162666e-01	7.478980e-01	6.941245e-01
9             	bodyWall	1.091733e-01	3.139409e+00	1.033739e+00
9             	actuatorSlot_top	6.131358e-01	7.481967e-01	6.913146e-01
9             	actuatorSlot_bottom	6.131156e-01	7.481886e-01	6.913059e-01
9.3           	bodyWall	5.803440e-02	3.130661e+00	1.028259e+00
9.3           	actuatorSlot_top	6.094311e-01	7.485058e-01	6.883194e-01
9.3           	actuatorSlot_bottom	6.094203e-01	7.485092e-01	6.883189e-01
9.6           	bodyWall	6.611211e-02	3.122800e+00	1.032459e+00
9.6           	actuatorSlot_top	6.055845e-01	7.487311e-01	6.854470e-01
9.6           	actuatorSlot_bottom	6.055750e-01	7.487406e-01	6.854474e-01
9.9           	bodyWall	6.043706e-02	3.115704e+00	1.026781e+00
9.9           	actuatorSlot_top	6.022739e-01	7.496228e-01	6.833737e-01
9.9           	actuatorSlot_bottom	6.022554e-01	7.496252e-01	6.833645e-01
10.2          	bodyWall	8.418132e-02	3.108919e+00	1.021721e+00
10.2          	actuatorSlot_top	5.994733e-01	7.513148e-01	6.820012e-01
10.2          	actuatorSlot_bottom	5.994465e-01	7.513069e-01	6.819832e-01
10.5          	bodyWall	1.087150e-01	3.102468e+00	1.021585e+00
10.5          	actuatorSlot_top	5.966510e-01	7.531177e-01	6.807082e-01
10.5          	actuatorSlot_bottom	5.966232e-01	7.531036e-01	6.806881e-01
10.8          	bodyWall	9.900495e-02	3.096563e+00	1.022756e+00
10.8          	actuatorSlot_top	5.937072e-01	7.546545e-01	6.793160e-01
10.8          	actuatorSlot_bottom	5.936841e-01	7.546398e-01	6.792991e-01
11.1          	bodyWall	1.031664e-01	3.091526e+00	1.015051e+00
11.1          	actuatorSlot_top	5.906025e-01	7.552359e-01	6.775463e-01
11.1          	actuatorSlot_bottom	5.905888e-01	7.552301e-01	6.775387e-01
11.4          	bodyWall	1.082497e-01	3.087655e+00	1.009442e+00
11.4          	actuatorSlot_top	5.872973e-01	7.547964e-01	6.753333e-01
11.4          	actuatorSlot_bottom	5.872924e-01	7.548039e-01	6.753355e-01
11.7          	bodyWall	9.615013e-02	3.084816e+00	1.009288e+00
11.7          	actuatorSlot_top	5.848144e-01	7.541474e-01	6.736476e-01
11.7          	actuatorSlot_bottom	5.848050e-01	7.541510e-01	6.736442e-01
12            	bodyWall	3.967196e-02	3.081970e+00	1.004817e+00
12            	actuatorSlot_top	5.839425e-01	7.552007e-01	6.736473e-01
12            	actuatorSlot_bottom	5.839147e-01	7.551799e-01	6.736225e-01
12.3          	bodyWall	7.446161e-02	3.078008e+00	9.975165e-01
12.3          	actuatorSlot_top	5.844415e-01	7.589477e-01	6.754771e-01
12.3          	actuatorSlot_bottom	5.844157e-01	7.589184e-01	6.754520e-01
12.6          	bodyWall	7.194240e-02	3.072763e+00	9.947305e-01
12.6          	actuatorSlot_top	5.846137e-01	7.639374e-01	6.774832e-01
12.6          	actuatorSlot_bottom	5.845912e-01	7.638999e-01	6.774578e-01
12.9          	bodyWall	9.886325e-02	3.066949e+00	9.952402e-01
12.9          	actuatorSlot_top	5.839074e-01	7.687988e-01	6.789218e-01
12.9          	actuatorSlot_bottom	5.838910e-01	7.687616e-01	6.789001e-01
13.2          	bodyWall	4.518597e-02	3.061197e+00	9.934854e-01
13.2          	actuatorSlot_top	5.825295e-01	7.731061e-01	6.798218e-01
13.2          	actuatorSlot_bottom	5.825245e-01	7.730823e-01	6.798118e-01
13.5          	bodyWall	3.927354e-02	3.056090e+00	9.870693e-01
13.5          	actuatorSlot_top	5.803773e-01	7.759342e-01	6.797517e-01
13.5          	actuatorSlot_bottom	5.803824e-01	7.759313e-01	6.797557e-01
13.8          	bodyWall	5.676444e-02	3.052273e+00	9.779431e-01
13.8          	actuatorSlot_top	5.774705e-01	7.763874e-01	6.783277e-01
13.8          	actuatorSlot_bottom	5.774806e-01	7.764057e-01	6.783428e-01
14.1          	bodyWall	5.559063e-02	3.050035e+00	9.819850e-01
14.1          	actuatorSlot_top	5.743743e-01	7.747439e-01	6.759476e-01
14.1          	actuatorSlot_bottom	5.743797e-01	7.747711e-01	6.759632e-01
14.4          	bodyWall	7.424822e-02	3.048917e+00	9.769897e-01
14.4          	actuatorSlot_top	5.723769e-01	7.729042e-01	6.741444e-01
14.4          	actuatorSlot_bottom	5.723676e-01	7.729188e-01	6.741455e-01
14.7          	bodyWall	8.839454e-02	3.047733e+00	9.756754e-01
14.7          	actuatorSlot_top	5.721359e-01	7.729682e-01	6.741721e-01
14.7          	actuatorSlot_bottom	5.721147e-01	7.729605e-01	6.741572e-01
15            	bodyWall	4.131600e-02	3.045563e+00	9.679533e-01
15            	actuatorSlot_top	5.727532e-01	7.751595e-01	6.755692e-01
15            	actuatorSlot_bottom	5.727277e-01	7.751309e-01	6.755434e-01
15.3          	bodyWall	5.325165e-02	3.042322e+00	9.682075e-01
15.3          	actuatorSlot_top	5.732795e-01	7.785483e-01	6.774105e-01
15.3          	actuatorSlot_bottom	5.732562e-01	7.785093e-01	6.773816e-01
15.6          	bodyWall	5.614395e-02	3.038411e+00	9.655917e-01
15.6          	actuatorSlot_top	5.729696e-01	7.818892e-01	6.787657e-01
15.6          	actuatorSlot_bottom	5.729605e-01	7.818611e-01	6.787498e-01
15.9          	bodyWall	6.564004e-02	3.034645e+00	9.625701e-01
15.9          	actuatorSlot_top	5.717620e-01	7.841183e-01	6.791710e-01
15.9          	actuatorSlot_bottom	5.717616e-01	7.841048e-01	6.791659e-01
16.2          	bodyWall	4.299071e-02	3.031311e+00	9.563544e-01
16.2          	actuatorSlot_top	5.703154e-01	7.855337e-01	6.791150e-01
16.2          	actuatorSlot_bottom	5.703226e-01	7.855376e-01	6.791218e-01
16.5          	bodyWall	3.252250e-02	3.028767e+00	9.543996e-01
16.5          	actuatorSlot_top	5.682440e-01	7.854875e-01	6.780546e-01
16.5          	actuatorSlot_bottom	5.682571e-01	7.855107e-01	6.780734e-01
16.8          	bodyWall	4.992085e-02	3.027385e+00	9.468174e-01
16.8          	actuatorSlot_top	5.657751e-01	7.837490e-01	6.759974e-01
16.8          	actuatorSlot_bottom	5.657908e-01	7.837873e-01	6.760245e-01
17.1          	bodyWall	4.619922e-02	3.027203e+00	9.416949e-01
17.1          	actuatorSlot_top	5.634059e-01	7.807680e-01	6.734124e-01
17.1          	actuatorSlot_bottom	5.634100e-01	7.808035e-01	6.734313e-01
17.4          	bodyWall	3.763643e-02	3.027777e+00	9.388508e-01
17.4          	actuatorSlot_top	5.618034e-01	7.777180e-01	6.712103e-01
17.4          	actuatorSlot_bottom	5.618072e-01	7.777525e-01	6.712287e-01
17.7          	bodyWall	3.806892e-02	3.028316e+00	9.356299e-01
17.7          	actuatorSlot_top	5.615380e-01	7.760901e-01	6.703984e-01
17.7          	actuatorSlot_bottom	5.615186e-01	7.760882e-01	6.703870e-01
18            	bodyWall	7.231787e-02	3.028045e+00	9.284562e-01
18            	actuatorSlot_top	5.621580e-01	7.764128e-01	6.709473e-01
18            	actuatorSlot_bottom	5.621202e-01	7.763722e-01	6.709080e-01
18.3          	bodyWall	2.179429e-02	3.026698e+00	9.320893e-01
18.3          	actuatorSlot_top	5.632924e-01	7.785195e-01	6.725850e-01
18.3          	actuatorSlot_bottom	5.632587e-01	7.784594e-01	6.725394e-01
18.6          	bodyWall	2.840849e-02	3.024297e+00	9.271710e-01
18.6          	actuatorSlot_top	5.640053e-01	7.814720e-01	6.743636e-01
18.6          	actuatorSlot_bottom	5.639814e-01	7.814081e-01	6.743216e-01
18.9          	bodyWall	3.985206e-02	3.021342e+00	9.308334e-01
18.9          	actuatorSlot_top	5.643175e-01	7.845825e-01	6.760215e-01
18.9          	actuatorSlot_bottom	5.643096e-01	7.845279e-01	6.759923e-01
19.2          	bodyWall	6.471455e-02	3.018298e+00	9.331331e-01
19.2          	actuatorSlot_top	5.638947e-01	7.870249e-01	6.769967e-01
19.2          	actuatorSlot_bottom	5.639058e-01	7.869940e-01	6.769884e-01
19.5          	bodyWall	6.663941e-02	3.015593e+00	9.388902e-01
19.5          	actuatorSlot_top	5.628015e-01	7.883607e-01	6.771166e-01
19.5          	actuatorSlot_bottom	5.628244e-01	7.883565e-01	6.771268e-01
19.8          	bodyWall	5.283274e-02	3.013647e+00	9.442482e-01
19.8          	actuatorSlot_top	5.610777e-01	7.882186e-01	6.762078e-01
19.8          	actuatorSlot_bottom	5.611123e-01	7.882469e-01	6.762396e-01
20.1          	bodyWall	3.025808e-02	3.012846e+00	9.509861e-01
20.1          	actuatorSlot_top	5.588137e-01	7.863312e-01	6.741694e-01
20.1          	actuatorSlot_bottom	5.588578e-01	7.863964e-01	6.742239e-01
20.4          	bodyWall	7.114699e-03	3.013231e+00	9.655592e-01
20.4          	actuatorSlot_top	5.566704e-01	7.832852e-01	6.716265e-01
20.4          	actuatorSlot_bottom	5.567127e-01	7.833766e-01	6.716926e-01
20.7          	bodyWall	2.983710e-02	3.014480e+00	9.747006e-01
20.7          	actuatorSlot_top	5.550307e-01	7.798467e-01	6.691502e-01
20.7          	actuatorSlot_bottom	5.550626e-01	7.799500e-01	6.692164e-01
21            	bodyWall	6.325526e-02	3.016271e+00	9.829061e-01
21            	actuatorSlot_top	5.540416e-01	7.765514e-01	6.670853e-01
21            	actuatorSlot_bottom	5.540516e-01	7.766427e-01	6.671338e-01
21.3          	bodyWall	4.165719e-02	3.017911e+00	9.945862e-01
21.3          	actuatorSlot_top	5.541236e-01	7.745265e-01	6.662014e-01
21.3          	actuatorSlot_bottom	5.541140e-01	7.745914e-01	6.662270e-01
21.6          	bodyWall	6.988734e-02	3.018905e+00	9.894857e-01
21.6          	actuatorSlot_top	5.547898e-01	7.738970e-01	6.662815e-01
21.6          	actuatorSlot_bottom	5.547649e-01	7.739290e-01	6.662834e-01
21.9          	bodyWall	3.403313e-02	3.018970e+00	9.842828e-01
21.9          	actuatorSlot_top	5.558780e-01	7.746795e-01	6.672512e-01
21.9          	actuatorSlot_bottom	5.558457e-01	7.746806e-01	6.672349e-01
22.2          	bodyWall	7.925101e-02	3.017881e+00	9.823315e-01
22.2          	actuatorSlot_top	5.570382e-01	7.767436e-01	6.688552e-01
22.2          	actuatorSlot_bottom	5.570091e-01	7.767238e-01	6.688311e-01
22.5          	bodyWall	5.164228e-02	3.037528e+00	9.723313e-01
22.5          	actuatorSlot_top	5.580104e-01	7.796236e-01	6.707529e-01
22.5          	actuatorSlot_bottom	5.579859e-01	7.795874e-01	6.707231e-01
22.8          	bodyWall	4.494767e-02	3.164876e+00	9.620311e-01
22.8          	actuatorSlot_top	5.587781e-01	7.831429e-01	6.728694e-01
22.8          	actuatorSlot_bottom	5.587673e-01	7.831023e-01	6.728441e-01
23.1          	bodyWall	8.179153e-02	3.116871e+00	9.706482e-01
23.1          	actuatorSlot_top	5.592503e-01	7.870014e-01	6.750365e-01
23.1          	actuatorSlot_bottom	5.592559e-01	7.869618e-01	6.750191e-01
23.4          	bodyWall	9.286772e-02	3.004353e+00	9.735492e-01
23.4          	actuatorSlot_top	5.596226e-01	7.910783e-01	6.773000e-01
23.4          	actuatorSlot_bottom	5.596492e-01	7.910456e-01	6.772958e-01
23.7          	bodyWall	9.754127e-02	2.999093e+00	9.663520e-01
23.7          	actuatorSlot_top	5.598481e-01	7.956264e-01	6.797853e-01
23.7          	actuatorSlot_bottom	5.599011e-01	7.956098e-01	6.797998e-01
24            	bodyWall	9.094373e-02	2.993255e+00	9.817852e-01
24            	actuatorSlot_top	5.598302e-01	8.002441e-01	6.822557e-01
24            	actuatorSlot_bottom	5.599297e-01	8.002726e-01	6.823144e-01
24.3          	bodyWall	6.759113e-02	3.310248e+00	1.014550e+00
24.3          	actuatorSlot_top	5.592676e-01	8.042772e-01	6.842266e-01
24.3          	actuatorSlot_bottom	5.593926e-01	8.043539e-01	6.843210e-01
24.6          	bodyWall	2.754274e-02	3.471423e+00	1.074731e+00
24.6          	actuatorSlot_top	5.585876e-01	8.077967e-01	6.859338e-01
24.6          	actuatorSlot_bottom	5.587093e-01	8.078851e-01	6.860322e-01
24.9          	bodyWall	1.427378e-02	3.530949e+00	1.107559e+00
24.9          	actuatorSlot_top	5.579143e-01	8.109708e-01	6.875049e-01
24.9          	actuatorSlot_bottom	5.580283e-01	8.110557e-01	6.875972e-01
25.2          	bodyWall	2.723771e-02	3.389738e+00	1.116763e+00
25.2          	actuatorSlot_top	5.577608e-01	8.139257e-01	6.892238e-01
25.2          	actuatorSlot_bottom	5.578781e-01	8.140047e-01	6.893138e-01
25.5          	bodyWall	3.904611e-02	3.236240e+00	1.117321e+00
25.5          	actuatorSlot_top	5.578304e-01	8.167621e-01	6.910421e-01
25.5          	actuatorSlot_bottom	5.579561e-01	8.168452e-01	6.911373e-01
25.8          	bodyWall	6.014092e-02	3.151472e+00	1.100324e+00
25.8          	actuatorSlot_top	5.576978e-01	8.192126e-01	6.925858e-01
25.8          	actuatorSlot_bottom	5.578359e-01	8.193049e-01	6.926907e-01
26.1          	bodyWall	5.093380e-02	3.101616e+00	1.095486e+00
26.1          	actuatorSlot_top	5.571992e-01	8.210271e-01	6.936180e-01
26.1          	actuatorSlot_bottom	5.573547e-01	8.211331e-01	6.937370e-01
26.4          	bodyWall	4.096224e-02	3.023080e+00	1.076733e+00
26.4          	actuatorSlot_top	5.563431e-01	8.220946e-01	6.940720e-01
26.4          	actuatorSlot_bottom	5.565241e-01	8.222185e-01	6.942111e-01
26.7          	bodyWall	8.548273e-02	2.972406e+00	1.065508e+00
26.7          	actuatorSlot_top	5.551718e-01	8.224962e-01	6.939888e-01
26.7          	actuatorSlot_bottom	5.554029e-01	8.226641e-01	6.941738e-01
27            	bodyWall	9.996336e-02	2.942168e+00	1.037401e+00
27            	actuatorSlot_top	5.534816e-01	8.220254e-01	6.931458e-01
27            	actuatorSlot_bottom	5.537563e-01	8.222423e-01	6.933775e-01
27.3          	bodyWall	1.043151e-01	2.939998e+00	1.004993e+00
27.3          	actuatorSlot_top	5.515287e-01	8.208989e-01	6.917705e-01
27.3          	actuatorSlot_bottom	5.518409e-01	8.211596e-01	6.920438e-01
27.6          	bodyWall	1.033402e-01	2.938567e+00	9.951461e-01
27.6          	actuatorSlot_top	5.496846e-01	8.195279e-01	6.902641e-01
27.6          	actuatorSlot_bottom	5.500270e-01	8.198214e-01	6.905696e-01
27.9          	bodyWall	9.876204e-02	2.937729e+00	9.980910e-01
27.9          	actuatorSlot_top	5.480817e-01	8.181129e-01	6.888057e-01
27.9          	actuatorSlot_bottom	5.484400e-01	8.184239e-01	6.891281e-01
28.2          	bodyWall	7.845603e-02	2.937245e+00	9.788202e-01
28.2          	actuatorSlot_top	5.467509e-01	8.168245e-01	6.875182e-01
28.2          	actuatorSlot_bottom	5.470853e-01	8.171218e-01	6.878222e-01
28.5          	bodyWall	7.843857e-02	2.936629e+00	9.692025e-01
28.5          	actuatorSlot_top	5.463979e-01	8.164162e-01	6.871638e-01
28.5          	actuatorSlot_bottom	5.467537e-01	8.167290e-01	6.874856e-01
28.8          	bodyWall	7.472719e-02	2.935492e+00	9.655603e-01
28.8          	actuatorSlot_top	5.472184e-01	8.172541e-01	6.880556e-01
28.8          	actuatorSlot_bottom	5.475561e-01	8.175446e-01	6.883564e-01
29.1          	bodyWall	7.941199e-02	2.933340e+00	9.684560e-01
29.1          	actuatorSlot_top	5.490594e-01	8.194911e-01	6.902387e-01
29.1          	actuatorSlot_bottom	5.493856e-01	8.197677e-01	6.905257e-01
29.4          	bodyWall	8.380739e-02	2.930050e+00	9.749173e-01
29.4          	actuatorSlot_top	5.516149e-01	8.228144e-01	6.934159e-01
29.4          	actuatorSlot_bottom	5.519412e-01	8.230885e-01	6.937011e-01
29.7          	bodyWall	7.640081e-02	2.925451e+00	9.981342e-01
29.7          	actuatorSlot_top	5.550837e-01	8.273173e-01	6.977138e-01
29.7          	actuatorSlot_bottom	5.554115e-01	8.275922e-01	6.979951e-01
30            	bodyWall	2.902451e-02	2.919886e+00	1.001499e+00
30            	actuatorSlot_top	5.585076e-01	8.319990e-01	7.022103e-01
30            	actuatorSlot_bottom	5.588925e-01	8.323080e-01	7.025389e-01
30.3          	bodyWall	7.680253e-02	2.913714e+00	9.950313e-01
30.3          	actuatorSlot_top	5.618647e-01	8.365461e-01	7.066820e-01
30.3          	actuatorSlot_bottom	5.622982e-01	8.368985e-01	7.070571e-01
30.6          	bodyWall	3.229046e-02	3.020640e+00	9.961425e-01
30.6          	actuatorSlot_top	5.649644e-01	8.406639e-01	7.108381e-01
30.6          	actuatorSlot_bottom	5.654132e-01	8.410365e-01	7.112319e-01
30.9          	bodyWall	6.687139e-02	3.051545e+00	1.002225e+00
30.9          	actuatorSlot_top	5.677934e-01	8.439852e-01	7.144571e-01
30.9          	actuatorSlot_bottom	5.682706e-01	8.443765e-01	7.148760e-01
31.2          	bodyWall	1.009468e-01	3.046519e+00	9.974103e-01
31.2          	actuatorSlot_top	5.693624e-01	8.460234e-01	7.167911e-01
31.2          	actuatorSlot_bottom	5.698740e-01	8.464412e-01	7.172446e-01
31.5          	bodyWall	6.540230e-02	2.984516e+00	1.007879e+00
31.5          	actuatorSlot_top	5.700241e-01	8.470335e-01	7.180878e-01
31.5          	actuatorSlot_bottom	5.705844e-01	8.474898e-01	7.185871e-01
31.8          	bodyWall	3.943998e-02	2.924306e+00	1.016821e+00
31.8          	actuatorSlot_top	5.688511e-01	8.464299e-01	7.175657e-01
31.8          	actuatorSlot_bottom	5.694465e-01	8.469108e-01	7.180985e-01
32.1          	bodyWall	6.765733e-02	2.881589e+00	1.013042e+00
32.1          	actuatorSlot_top	5.663989e-01	8.446911e-01	7.156990e-01
32.1          	actuatorSlot_bottom	5.670297e-01	8.452026e-01	7.162681e-01
32.4          	bodyWall	6.301289e-02	2.880238e+00	1.011364e+00
32.4          	actuatorSlot_top	5.624311e-01	8.417012e-01	7.123150e-01
32.4          	actuatorSlot_bottom	5.630788e-01	8.422226e-01	7.129020e-01
32.7          	bodyWall	1.261208e-02	2.880129e+00	1.006290e+00
32.7          	actuatorSlot_top	5.582935e-01	8.383744e-01	7.085576e-01
32.7          	actuatorSlot_bottom	5.589288e-01	8.389049e-01	7.091452e-01
33            	bodyWall	7.687587e-02	2.880506e+00	1.005904e+00
33            	actuatorSlot_top	5.555134e-01	8.359599e-01	7.058634e-01
33            	actuatorSlot_bottom	5.561056e-01	8.364608e-01	7.064167e-01
33.3          	bodyWall	7.181170e-02	2.880599e+00	1.010475e+00
33.3          	actuatorSlot_top	5.546054e-01	8.349820e-01	7.048394e-01
33.3          	actuatorSlot_bottom	5.551191e-01	8.354206e-01	7.053218e-01
33.6          	bodyWall	3.528087e-02	2.879983e+00	1.006512e+00
33.6          	actuatorSlot_top	5.549821e-01	8.351427e-01	7.051013e-01
33.6          	actuatorSlot_bottom	5.555004e-01	8.355749e-01	7.055816e-01
33.9          	bodyWall	3.665428e-02	2.878730e+00	1.005022e+00
33.9          	actuatorSlot_top	5.561129e-01	8.360127e-01	7.061628e-01
33.9          	actuatorSlot_bottom	5.566197e-01	8.364331e-01	7.066341e-01
34.2          	bodyWall	1.055229e-01	2.877307e+00	9.979354e-01
34.2          	actuatorSlot_top	5.568635e-01	8.367117e-01	7.070013e-01
34.2          	actuatorSlot_bottom	5.573399e-01	8.371060e-01	7.074479e-01
34.5          	bodyWall	6.154474e-02	2.876489e+00	9.864148e-01
34.5          	actuatorSlot_top	5.555850e-01	8.359189e-01	7.060787e-01
34.5          	actuatorSlot_bottom	5.561806e-01	8.363987e-01	7.066322e-01
34.8          	bodyWall	3.329852e-02	2.877394e+00	9.667947e-01
34.8          	actuatorSlot_top	5.515464e-01	8.329028e-01	7.025421e-01
34.8          	actuatorSlot_bottom	5.521121e-01	8.333823e-01	7.030948e-01
35.1          	bodyWall	5.999231e-02	2.879746e+00	9.439711e-01
35.1          	actuatorSlot_top	5.471772e-01	8.293097e-01	6.983926e-01
35.1          	actuatorSlot_bottom	5.476335e-01	8.297234e-01	6.988651e-01
35.4          	bodyWall	1.073912e-02	2.883460e+00	9.236072e-01
35.4          	actuatorSlot_top	5.422295e-01	8.249970e-01	6.934672e-01
35.4          	actuatorSlot_bottom	5.425858e-01	8.253622e-01	6.938766e-01
35.7          	bodyWall	6.846262e-02	2.887665e+00	9.079446e-01
35.7          	actuatorSlot_top	5.384711e-01	8.212355e-01	6.893395e-01
35.7          	actuatorSlot_bottom	5.387547e-01	8.215881e-01	6.897114e-01
36            	bodyWall	6.255040e-02	2.891969e+00	9.035264e-01
36            	actuatorSlot_top	5.363517e-01	8.183578e-01	6.864698e-01
36            	actuatorSlot_bottom	5.363753e-01	8.185325e-01	6.866231e-01
36.3          	bodyWall	4.419446e-02	2.895056e+00	9.018801e-01
36.3          	actuatorSlot_top	5.367566e-01	8.177343e-01	6.860735e-01
36.3          	actuatorSlot_bottom	5.367219e-01	8.178495e-01	6.861759e-01
36.6          	bodyWall	2.225366e-02	2.897343e+00	8.908462e-01
36.6          	actuatorSlot_top	5.371849e-01	8.174985e-01	6.859648e-01
36.6          	actuatorSlot_bottom	5.370604e-01	8.175617e-01	6.860045e-01
36.9          	bodyWall	6.349931e-02	2.898554e+00	8.930764e-01
36.9          	actuatorSlot_top	5.384716e-01	8.182168e-01	6.868506e-01
36.9          	actuatorSlot_bottom	5.383705e-01	8.183071e-01	6.869237e-01
37.2          	bodyWall	3.494334e-02	2.899283e+00	8.943741e-01
37.2          	actuatorSlot_top	5.389485e-01	8.185057e-01	6.871758e-01
37.2          	actuatorSlot_bottom	5.387554e-01	8.185581e-01	6.871990e-01
37.5          	bodyWall	8.688154e-02	2.899438e+00	8.961901e-01
37.5          	actuatorSlot_top	5.399511e-01	8.192565e-01	6.880262e-01
37.5          	actuatorSlot_bottom	5.396469e-01	8.192410e-01	6.879733e-01
37.8          	bodyWall	3.393052e-02	2.898684e+00	9.119204e-01
37.8          	actuatorSlot_top	5.421448e-01	8.211323e-01	6.900727e-01
37.8          	actuatorSlot_bottom	5.415406e-01	8.208889e-01	6.897656e-01
38.1          	bodyWall	8.061538e-02	2.896270e+00	9.321791e-01
38.1          	actuatorSlot_top	5.466632e-01	8.252423e-01	6.945056e-01
38.1          	actuatorSlot_bottom	5.457215e-01	8.246838e-01	6.938773e-01
38.4          	bodyWall	2.647943e-02	2.891664e+00	9.504864e-01
38.4          	actuatorSlot_top	5.534388e-01	8.316298e-01	7.014149e-01
38.4          	actuatorSlot_bottom	5.521521e-01	8.307428e-01	7.004480e-01
38.7          	bodyWall	8.259719e-02	2.884715e+00	9.584303e-01
38.7          	actuatorSlot_top	5.621031e-01	8.394279e-01	7.101545e-01
38.7          	actuatorSlot_bottom	5.605978e-01	8.382619e-01	7.089207e-01
39            	bodyWall	4.476984e-02	2.875999e+00	9.648264e-01
39            	actuatorSlot_top	5.708024e-01	8.469526e-01	7.189581e-01
39            	actuatorSlot_bottom	5.692640e-01	8.457004e-01	7.176471e-01
39.3          	bodyWall	4.267396e-02	2.866362e+00	9.627925e-01
39.3          	actuatorSlot_top	5.792460e-01	8.537364e-01	7.272799e-01
39.3          	actuatorSlot_bottom	5.776053e-01	8.523018e-01	7.258489e-01
39.6          	bodyWall	7.789368e-02	2.856621e+00	9.666745e-01
39.6          	actuatorSlot_top	5.866303e-01	8.588852e-01	7.343134e-01
39.6          	actuatorSlot_bottom	5.848714e-01	8.574237e-01	7.327697e-01
39.9          	bodyWall	5.896212e-02	2.847615e+00	9.612290e-01
39.9          	actuatorSlot_top	5.919353e-01	8.617487e-01	7.390484e-01
39.9          	actuatorSlot_bottom	5.900620e-01	8.602106e-01	7.374054e-01
40.2          	bodyWall	9.098669e-02	2.839833e+00	9.566828e-01
40.2          	actuatorSlot_top	5.954388e-01	8.629597e-01	7.419216e-01
40.2          	actuatorSlot_bottom	5.934661e-01	8.613777e-01	7.402055e-01
40.5          	bodyWall	6.925641e-02	2.833518e+00	9.503259e-01
40.5          	actuatorSlot_top	5.967225e-01	8.624889e-01	7.427312e-01
40.5          	actuatorSlot_bottom	5.945864e-01	8.607965e-01	7.408767e-01
40.8          	bodyWall	6.798596e-02	2.829156e+00	9.495897e-01
40.8          	actuatorSlot_top	5.950594e-01	8.604740e-01	7.411841e-01
40.8          	actuatorSlot_bottom	5.928037e-01	8.587032e-01	7.392332e-01
41.1          	bodyWall	1.124061e-01	2.826854e+00	9.538400e-01
41.1          	actuatorSlot_top	5.910911e-01	8.574700e-01	7.378595e-01
41.1          	actuatorSlot_bottom	5.886475e-01	8.555753e-01	7.357581e-01
41.4          	bodyWall	8.901077e-02	2.826739e+00	9.402727e-01
41.4          	actuatorSlot_top	5.846609e-01	8.534083e-01	7.326644e-01
41.4          	actuatorSlot_bottom	5.820726e-01	8.514144e-01	7.304483e-01
41.7          	bodyWall	1.005765e-01	2.828274e+00	9.314228e-01
41.7          	actuatorSlot_top	5.781016e-01	8.495989e-01	7.274003e-01
41.7          	actuatorSlot_bottom	5.751842e-01	8.473820e-01	7.249185e-01
42            	bodyWall	2.535580e-02	2.830877e+00	9.223645e-01
42            	actuatorSlot_top	5.718026e-01	8.459051e-01	7.222446e-01
42            	actuatorSlot_bottom	5.685213e-01	8.434200e-01	7.194504e-01
42.3          	bodyWall	4.644019e-02	2.833729e+00	9.274842e-01
42.3          	actuatorSlot_top	5.674360e-01	8.433586e-01	7.185770e-01
42.3          	actuatorSlot_bottom	5.639484e-01	8.406390e-01	7.156102e-01
42.6          	bodyWall	6.212334e-02	2.836184e+00	9.370229e-01
42.6          	actuatorSlot_top	5.650491e-01	8.419198e-01	7.165139e-01
42.6          	actuatorSlot_bottom	5.613363e-01	8.390889e-01	7.133294e-01
42.9          	bodyWall	6.902341e-02	2.837719e+00	9.428889e-01
42.9          	actuatorSlot_top	5.646166e-01	8.417017e-01	7.160198e-01