# Force coefficients
# liftDir     : (0.000000e+00 1.000000e+00 0.000000e+00)
# dragDir     : (1.000000e+00 0.000000e+00 0.000000e+00)
# pitchAxis   : (0.000000e+00 0.000000e+00 1.000000e+00)
# magUInf     : 4.000000e-01
# lRef        : 1.000000e+00
# Aref        : 1.000000e-01
# CofR        : (5.000000e-01 0.000000e+00 5.000000e-02)
# Time        	Cm            	Cd            	Cl            	Cl(f)         	Cl(r)         
0             	0.000000e+00	0.000000e+00	0.000000e+00	0.000000e+00	0.000000e+00
0.3           	3.501959e-05	1.484608e+00	-1.104355e-04	-2.019817e-05	-9.023734e-05
0.6           	1.942212e-05	1.554769e+00	-4.620568e-05	-3.680715e-06	-4.252496e-05
0.9           	1.341941e-05	1.619335e+00	-1.645029e-05	5.194264e-06	-2.164456e-05
1.2           	2.439476e-05	1.621148e+00	-9.498962e-05	-2.310005e-05	-7.188957e-05
1.5           	8.899358e-06	1.587328e+00	4.929409e-05	3.354640e-05	1.574769e-05
1.8           	2.576299e-05	1.537836e+00	3.345387e-06	2.743568e-05	-2.409030e-05
2.1           	2.118816e-05	1.467820e+00	4.661531e-05	4.449582e-05	2.119494e-06
2.4           	-2.334093e-06	1.403292e+00	4.987788e-05	2.260485e-05	2.727303e-05
2.7           	-6.058631e-06	1.341849e+00	3.803108e-05	1.295691e-05	2.507417e-05
3             	2.193851e-06	1.284382e+00	2.746244e-05	1.592507e-05	1.153737e-05
3.3           	-1.426165e-06	1.224415e+00	8.373392e-06	2.760531e-06	5.612861e-06
3.6           	-2.458655e-05	1.168821e+00	1.673375e-04	5.908222e-05	1.082553e-04
3.9           	-1.312920e-05	1.120242e+00	3.678713e-05	5.264365e-06	3.152276e-05
4.2           	-1.596277e-05	1.070665e+00	1.923763e-05	-6.343958e-06	2.558158e-05
4.5           	-2.370981e-05	1.020181e+00	2.005637e-04	7.657205e-05	1.239917e-04
4.8           	-1.378632e-05	9.703346e-01	6.589853e-07	-1.345683e-05	1.411582e-05
5.1           	6.287764e-07	9.215578e-01	2.518911e-05	1.322333e-05	1.196578e-05
5.4           	-2.183906e-05	8.737605e-01	5.116532e-05	3.743601e-06	4.742172e-05
5.7           	-2.529975e-05	8.271434e-01	5.130127e-05	3.508784e-07	5.095039e-05
6             	-3.413530e-05	7.791805e-01	3.083225e-05	-1.871918e-05	4.955143e-05
6.3           	-4.217909e-05	7.334640e-01	8.366347e-06	-3.799592e-05	4.636226e-05
6.6           	-4.159666e-05	6.901744e-01	-6.551357e-05	-7.435345e-05	8.839877e-06
6.9           	-3.184158e-05	6.543798e-01	-6.640095e-05	-6.504206e-05	-1.358891e-06
7.2           	-1.854906e-05	6.262525e-01	-3.381390e-05	-3.545601e-05	1.642104e-06
7.5           	-6.575993e-06	6.071889e-01	1.351641e-05	1.822116e-07	1.333420e-05
7.8           	-6.354023e-06	5.987929e-01	5.091045e-05	1.910120e-05	3.180925e-05
8.1           	-1.455166e-05	6.064527e-01	1.221096e-04	4.650316e-05	7.560649e-05
8.4           	-1.656822e-05	6.262006e-01	5.021738e-05	8.540471e-06	4.167690e-05
8.7           	-6.979906e-06	6.605390e-01	9.589381e-05	4.096700e-05	5.492681e-05
9             	-1.011235e-05	7.183599e-01	2.275478e-05	1.265045e-06	2.148974e-05
9.3           	6.734904e-06	8.134289e-01	1.659992e-05	1.503486e-05	1.565054e-06
9.6           	4.609047e-05	9.579429e-01	7.083632e-05	8.150863e-05	-1.067231e-05
9.9           	5.688169e-05	1.157627e+00	4.534749e-05	7.955544e-05	-3.420795e-05
10.2          	5.305349e-05	1.399054e+00	3.797883e-05	7.204290e-05	-3.406407e-05
10.5          	-5.765602e-06	1.657373e+00	-1.382123e-04	-7.487176e-05	-6.334056e-05
10.8          	-1.514800e-04	1.809346e+00	-8.904004e-04	-5.966802e-04	-2.937202e-04
11.1          	5.266552e-06	1.903929e+00	-3.169070e-05	-1.057880e-05	-2.111190e-05
11.4          	5.654162e-05	2.013317e+00	3.854923e-06	5.846908e-05	-5.461416e-05
11.7          	-9.945449e-05	2.107813e+00	-2.623532e-04	-2.306311e-04	-3.172212e-05
12            	-2.032015e-05	2.151425e+00	-1.501052e-04	-9.537276e-05	-5.473247e-05
12.3          	-2.659691e-05	2.119533e+00	-9.287335e-05	-7.303359e-05	-1.983976e-05
12.6          	-3.540532e-05	2.042508e+00	1.998505e-05	-2.541279e-05	4.539784e-05
12.9          	-2.081565e-05	1.984546e+00	-1.730049e-04	-1.073181e-04	-6.568678e-05
13.2          	2.666216e-05	1.982507e+00	-3.223894e-05	1.054269e-05	-4.278163e-05
13.5          	9.766147e-05	1.976190e+00	1.453585e-04	1.703407e-04	-2.498223e-05
13.8          	7.180556e-05	1.972791e+00	3.292540e-04	2.364326e-04	9.282142e-05
14.1          	7.214414e-05	1.945262e+00	7.723106e-05	1.107597e-04	-3.352861e-05
14.4          	4.294042e-05	1.881287e+00	9.056917e-05	8.822500e-05	2.344169e-06
14.7          	9.917393e-06	1.828936e+00	-4.962292e-05	-1.489407e-05	-3.472886e-05
15            	2.497604e-05	1.793197e+00	-2.563264e-05	1.215972e-05	-3.779236e-05
15.3          	-2.746126e-06	1.767441e+00	-1.210484e-04	-6.327035e-05	-5.777809e-05
15.6          	-1.509726e-05	1.755011e+00	-1.420440e-04	-8.611926e-05	-5.592474e-05
15.9          	4.786282e-06	1.736593e+00	-9.956463e-05	-4.499604e-05	-5.456860e-05
16.2          	2.580492e-06	1.730752e+00	-7.401982e-05	-3.442942e-05	-3.959040e-05
16.5          	4.307341e-06	1.740557e+00	1.561470e-06	5.088076e-06	-3.526606e-06
16.8          	-1.270060e-05	1.758953e+00	-4.624874e-05	-3.582497e-05	-1.042377e-05
17.1          	-2.115028e-05	1.771718e+00	-1.045934e-04	-7.344697e-05	-3.114640e-05
17.4          	-2.984637e-05	1.773171e+00	-7.713721e-05	-6.841498e-05	-8.722232e-06
17.7          	-3.239216e-05	1.752819e+00	-8.679718e-05	-7.579075e-05	-1.100643e-05
18            	-3.018848e-05	1.717002e+00	-8.671853e-05	-7.354775e-05	-1.317078e-05
18.3          	-2.303104e-05	1.676705e+00	-1.045712e-04	-7.531663e-05	-2.925456e-05
18.6          	-1.418754e-05	1.641959e+00	-8.815155e-05	-5.826331e-05	-2.988824e-05
18.9          	-6.870598e-06	1.614255e+00	-6.331899e-05	-3.853009e-05	-2.478890e-05
19.2          	2.667387e-07	1.592273e+00	-2.950248e-05	-1.448450e-05	-1.501798e-05
19.5          	-1.788412e-05	1.565470e+00	-3.031080e-05	-3.303952e-05	2.728720e-06
19.8          	-2.035275e-05	1.529734e+00	-2.398658e-05	-3.234604e-05	8.359456e-06
20.1          	6.792098e-07	1.486967e+00	1.086911e-05	6.113767e-06	4.755347e-06
20.4          	-2.991115e-06	1.447944e+00	-1.013864e-05	-8.060438e-06	-2.078207e-06
20.7          	1.039287e-06	1.426654e+00	-9.004413e-06	-3.462919e-06	-5.541494e-06
21            	5.247342e-06	1.428208e+00	-7.892323e-06	1.301181e-06	-9.193504e-06
21.3          	1.421107e-05	1.445805e+00	4.816428e-06	1.661928e-05	-1.180286e-05
21.6          	2.754282e-05	1.463645e+00	-4.924048e-05	2.922587e-06	-5.216306e-05
21.9          	3.605139e-05	1.471271e+00	7.868553e-05	7.539416e-05	3.291377e-06
22.2          	4.223340e-05	1.467630e+00	1.128925e-04	9.867964e-05	1.421284e-05
22.5          	5.112964e-05	1.465738e+00	1.257871e-04	1.140232e-04	1.176392e-05
22.8          	5.314690e-05	1.471942e+00	1.609666e-04	1.336302e-04	2.733638e-05
23.1          	9.088758e-05	1.482077e+00	-2.568835e-04	-3.755418e-05	-2.193293e-04
23.4          	3.023042e-05	1.485524e+00	9.358338e-05	7.702211e-05	1.656127e-05
23.7          	2.160001e-05	1.477808e+00	6.831400e-05	5.575701e-05	1.255699e-05
24            	2.526085e-05	1.462649e+00	-4.064783e-05	4.936934e-06	-4.558477e-05
24.3          	-9.832326e-06	1.449379e+00	-2.613929e-05	-2.290197e-05	-3.237319e-06
24.6          	-9.434970e-06	1.445387e+00	3.889147e-05	1.001077e-05	2.888071e-05
24.9          	-2.212343e-05	1.447986e+00	-3.142666e-06	-2.369476e-05	2.055210e-05
25.2          	-3.358484e-05	1.445032e+00	-3.422734e-06	-3.529621e-05	3.187347e-05
25.5          	-7.224925e-06	1.426651e+00	4.066084e-04	1.960793e-04	2.105291e-04
25.8          	-4.010613e-05	1.392155e+00	4.720485e-05	-1.650371e-05	6.370856e-05
26.1          	-2.013109e-05	1.351166e+00	1.584501e-04	5.909396e-05	9.935614e-05
26.4          	-4.193294e-05	1.317955e+00	1.006780e-04	8.406078e-06	9.227196e-05
26.7          	-3.491079e-05	1.300992e+00	1.523502e-04	4.126432e-05	1.110859e-04
27            	-3.807178e-05	1.301785e+00	1.624687e-04	4.316259e-05	1.193061e-04
27.3          	-2.114436e-05	1.313161e+00	1.009398e-05	-1.609737e-05	2.619135e-05
27.6          	-2.865959e-05	1.327833e+00	2.952178e-04	1.189493e-04	1.762685e-04
27.9          	-1.903789e-05	1.340102e+00	3.083358e-04	1.351300e-04	1.732058e-04
28.2          	-1.403861e-05	1.351993e+00	3.530409e-04	1.624818e-04	1.905590e-04
28.5          	-7.242444e-06	1.367006e+00	3.674458e-04	1.764805e-04	1.909653e-04
28.8          	3.137533e-05	1.383597e+00	6.151261e-04	3.389384e-04	2.761877e-04
29.1          	7.925287e-06	1.396379e+00	4.206612e-04	2.182559e-04	2.024053e-04
29.4          	1.324713e-05	1.399897e+00	4.331841e-04	2.298392e-04	2.033449e-04
29.7          	2.068295e-05	1.395111e+00	4.471682e-04	2.442671e-04	2.029012e-04
30            	1.702276e-05	1.387114e+00	4.211717e-04	2.276086e-04	1.935631e-04
30.3          	9.404051e-06	1.380895e+00	4.088767e-04	2.138424e-04	1.950343e-04
30.6          	3.837706e-05	1.377555e+00	2.011217e-04	1.389379e-04	6.218377e-05
30.9          	-7.182250e-06	1.370977e+00	3.623877e-04	1.740116e-04	1.883761e-04
31.2          	-1.890393e-05	1.358251e+00	3.448000e-04	1.534961e-04	1.913039e-04
31.5          	-3.934246e-05	1.333645e+00	3.082096e-04	1.147624e-04	1.934473e-04
31.8          	-5.820440e-05	1.297173e+00	2.866359e-04	8.511355e-05	2.015224e-04
32.1          	-7.844369e-05	1.258385e+00	2.461652e-04	4.463890e-05	2.015263e-04
32.4          	-9.170355e-05	1.225960e+00	1.735186e-04	-4.944264e-06	1.784628e-04
32.7          	-1.000257e-04	1.208333e+00	1.886608e-04	-5.695293e-06	1.943561e-04
33            	-1.094459e-04	1.204418e+00	1.485539e-04	-3.516896e-05	1.837228e-04
33.3          	-1.133456e-04	1.210069e+00	1.862665e-04	-2.021234e-05	2.064788e-04
33.6          	-1.057248e-04	1.217241e+00	2.545416e-04	2.154597e-05	2.329956e-04
33.9          	-9.523786e-05	1.221632e+00	3.329872e-04	7.125576e-05	2.617315e-04
34.2          	-7.846280e-05	1.226234e+00	3.978067e-04	1.204405e-04	2.773661e-04
34.5          	-6.666576e-05	1.237387e+00	4.317729e-04	1.492207e-04	2.825522e-04
34.8          	-6.083662e-05	1.258854e+00	5.255409e-04	2.019338e-04	3.236071e-04
35.1          	-5.458301e-05	1.284416e+00	4.948557e-04	1.928449e-04	3.020109e-04
35.4          	-4.758437e-05	1.304468e+00	5.119368e-04	2.083840e-04	3.035528e-04
35.7          	-3.621936e-07	1.311834e+00	2.413699e-04	1.203228e-04	1.210472e-04
36            	-3.318868e-05	1.309658e+00	5.194094e-04	2.265160e-04	2.928934e-04
36.3          	-2.660890e-05	1.305644e+00	5.405053e-04	2.436437e-04	2.968615e-04
36.6          	-2.057301e-05	1.304932e+00	5.794656e-04	2.691598e-04	3.103058e-04
36.9          	-6.501026e-06	1.305853e+00	5.501140e-04	2.685560e-04	2.815580e-04
37.2          	3.133607e-05	1.303074e+00	6.355973e-04	3.491347e-04	2.864626e-04
37.5          	-5.818786e-06	1.291150e+00	4.622542e-04	2.253083e-04	2.369459e-04
37.8          	-3.100862e-05	1.267694e+00	4.039165e-04	1.709496e-04	2.329669e-04
38.1          	-5.829375e-05	1.234014e+00	3.018882e-04	9.265034e-05	2.092379e-04
38.4          	-6.720820e-05	1.197358e+00	2.172033e-04	4.139345e-05	1.758098e-04
38.7          	-7.144610e-05	1.167729e+00	2.069002e-04	3.200397e-05	1.748962e-04
39            	-8.043534e-05	1.149833e+00	1.685487e-04	3.839015e-06	1.647097e-04
39.3          	-3.241512e-05	1.144578e+00	4.703509e-04	2.027603e-04	2.675905e-04
39.6          	-1.143960e-04	1.149448e+00	-3.115208e-04	-2.701564e-04	-4.136444e-05
39.9          	-9.166588e-05	1.157706e+00	5.683038e-05	-6.325069e-05	1.200811e-04
40.2          	-8.517901e-05	1.165101e+00	3.797772e-05	-6.619015e-05	1.041679e-04
40.5          	-7.528048e-05	1.172849e+00	1.501531e-05	-6.777282e-05	8.278813e-05
40.8          	-4.992845e-05	1.185207e+00	1.226498e-04	1.139644e-05	1.112533e-04
41.1          	-4.584055e-05	1.206251e+00	-7.604734e-06	-4.964292e-05	4.203819e-05
41.4          	-1.768756e-05	1.231221e+00	-7.472284e-05	-5.504898e-05	-1.967386e-05
41.7          	-2.725982e-05	1.253746e+00	4.463717e-05	-4.941242e-06	4.957841e-05
42            	2.071405e-05	1.267181e+00	1.074922e-04	7.446015e-05	3.303206e-05
42.3          	-6.062186e-06	1.271186e+00	-6.728171e-05	-3.970304e-05	-2.757867e-05
42.6          	3.152503e-05	1.271640e+00	-1.742949e-04	-5.562245e-05	-1.186725e-04
42.9          	-2.462521e-06	1.273691e+00	-2.812691e-05	-1.652598e-05	-1.160094e-05
43.2          	1.396222e-05	1.275557e+00	-6.729927e-05	-1.968741e-05	-4.761186e-05
43.5          	2.162021e-05	1.276464e+00	-1.075834e-04	-3.217150e-05	-7.541191e-05
43.8          	3.014523e-05	1.269795e+00	-1.577659e-04	-4.873773e-05	-1.090282e-04
44.1          	3.539553e-05	1.250856e+00	-2.281791e-04	-7.869400e-05	-1.494851e-04
44.4          	3.474162e-05	1.221539e+00	-2.302958e-04	-8.040628e-05	-1.498895e-04
44.7          	3.807447e-05	1.183990e+00	-3.001481e-04	-1.119996e-04	-1.881485e-04
45            	3.881508e-05	1.146492e+00	-3.294536e-04	-1.259117e-04	-2.035419e-04
45.3          	3.878122e-05	1.117908e+00	-3.700458e-04	-1.462417e-04	-2.238041e-04
45.6          	3.294383e-05	1.100038e+00	-4.145692e-04	-1.743408e-04	-2.402284e-04
45.9          	2.519964e-05	1.093399e+00	-4.716544e-04	-2.106276e-04	-2.610269e-04
46.2          	1.224197e-05	1.096155e+00	-5.848962e-04	-2.802061e-04	-3.046900e-04
46.5          	6.973025e-06	1.100432e+00	-5.933492e-04	-2.897016e-04	-3.036476e-04
46.8          	-8.680278e-06	1.105103e+00	-7.246125e-04	-3.709865e-04	-3.536260e-04
47.1          	-1.760734e-05	1.111766e+00	-7.744212e-04	-4.048180e-04	-3.696033e-04
47.4          	-1.073105e-05	1.125353e+00	-8.572332e-04	-4.393477e-04	-4.178856e-04
47.7          	-8.632893e-06	1.147607e+00	-8.049963e-04	-4.111311e-04	-3.938653e-04
48            	1.802541e-06	1.174329e+00	-8.319721e-04	-4.141835e-04	-4.177886e-04
48.3          	1.126315e-05	1.197909e+00	-8.642159e-04	-4.208448e-04	-4.433711e-04
48.6          	2.370512e-05	1.213304e+00	-8.825846e-04	-4.175872e-04	-4.649974e-04
48.9          	3.500197e-05	1.221406e+00	-8.831157e-04	-4.065559e-04	-4.765598e-04
49.2          	4.390958e-05	1.227383e+00	-8.647756e-04	-3.884782e-04	-4.762974e-04
49.5          	3.986220e-05	1.235160e+00	-8.400464e-04	-3.801610e-04	-4.598854e-04
49.8          	7.290356e-05	1.242564e+00	-8.379887e-04	-3.460908e-04	-4.918979e-04
50.1          	9.329846e-05	1.245249e+00	-8.304668e-04	-3.219349e-04	-5.085318e-04
50.4          	1.159272e-04	1.240319e+00	-8.196631e-04	-2.939044e-04	-5.257587e-04
50.7          	1.498418e-04	1.224086e+00	-7.613636e-04	-2.308400e-04	-5.305236e-04
51            	1.570157e-04	1.199864e+00	-8.107167e-04	-2.483427e-04	-5.623740e-04
51.3          	1.696890e-04	1.173600e+00	-7.656261e-04	-2.131241e-04	-5.525020e-04
51.6          	1.781453e-04	1.149852e+00	-7.722398e-04	-2.079746e-04	-5.642652e-04
51.9          	1.780792e-04	1.128281e+00	-7.616605e-04	-2.027510e-04	-5.589095e-04
52.2          	1.701121e-04	1.110194e+00	-8.478180e-04	-2.537969e-04	-5.940211e-04
52.5          	1.738403e-04	1.095022e+00	-6.077017e-04	-1.300106e-04	-4.776911e-04
52.8          	1.225758e-04	1.079608e+00	-7.509508e-04	-2.528996e-04	-4.980512e-04
53.1          	8.336228e-05	1.068002e+00	-1.030714e-03	-4.319950e-04	-5.987195e-04
53.4          	2.943272e-05	1.062596e+00	-1.498113e-03	-7.196239e-04	-7.784894e-04
53.7          	2.846854e-05	1.066422e+00	-1.030999e-03	-4.870312e-04	-5.439682e-04
54            	3.562366e-05	1.079534e+00	-1.265194e-03	-5.969732e-04	-6.682205e-04
54.3          	-2.578964e-05	1.098767e+00	-1.140262e-03	-5.959209e-04	-5.443416e-04
54.6          	-2.403925e-05	1.117327e+00	-1.100778e-03	-5.744283e-04	-5.263498e-04
54.9          	-2.129513e-05	1.132724e+00	-1.028223e-03	-5.354064e-04	-4.928162e-04
55.2          	-7.620527e-06	1.145152e+00	-9.349241e-04	-4.750826e-04	-4.598415e-04
55.5          	9.278361e-06	1.156770e+00	-8.595609e-04	-4.205021e-04	-4.390588e-04
55.8          	2.237449e-05	1.169830e+00	-7.898795e-04	-3.725653e-04	-4.173143e-04
56.1          	-1.642429e-05	1.181264e+00	-2.520498e-04	-1.424492e-04	-1.096006e-04
56.4          	8.390080e-05	1.188088e+00	-5.413531e-04	-1.867758e-04	-3.545774e-04
56.7          	1.701138e-04	1.186410e+00	-7.176551e-04	-1.887138e-04	-5.289414e-04
57            	1.434244e-04	1.176894e+00	-1.803557e-04	5.324657e-05	-2.336023e-04
57.3          	1.839823e-04	1.164247e+00	-5.366351e-05	1.571506e-04	-2.108141e-04
57.6          	2.043350e-04	1.154172e+00	-1.440956e-04	1.322873e-04	-2.763828e-04
57.9          	2.305146e-04	1.144905e+00	1.978409e-04	3.294351e-04	-1.315941e-04
58.2          	2.330073e-04	1.133632e+00	2.401371e-04	3.530759e-04	-1.129388e-04
58.5          	2.421326e-04	1.118221e+00	3.219314e-04	4.030983e-04	-8.116690e-05
58.8          	2.185496e-04	1.096758e+00	2.792739e-04	3.581865e-04	-7.891260e-05
59.1          	2.019012e-04	1.072351e+00	3.080471e-04	3.559247e-04	-4.787763e-05
59.4          	1.889536e-04	1.051044e+00	3.454866e-04	3.616969e-04	-1.621032e-05
59.7          	1.360301e-04	1.034829e+00	3.496271e-04	3.108436e-04	3.878344e-05
60            	9.744273e-05	1.026348e+00	3.830939e-04	2.889897e-04	9.410420e-05
60.3          	8.349580e-05	1.027975e+00	2.901363e-04	2.285640e-04	6.157235e-05
60.6          	2.426499e-05	1.035355e+00	4.226071e-04	2.355685e-04	1.870386e-04
60.9          	-2.479953e-05	1.046187e+00	4.397897e-04	1.950953e-04	2.446944e-04
61.2          	-7.666322e-05	1.057035e+00	4.960759e-04	1.713747e-04	3.247011e-04
61.5          	-1.038786e-04	1.068816e+00	5.637961e-04	1.780194e-04	3.857767e-04
61.8          	-1.243062e-04	1.083183e+00	7.544389e-04	2.529132e-04	5.015256e-04
62.1          	-1.373939e-04	1.101574e+00	9.170918e-04	3.211521e-04	5.959398e-04
62.4          	-1.434810e-04	1.120947e+00	1.088276e-03	4.006569e-04	6.876188e-04
62.7          	-1.448632e-04	1.136320e+00	1.257368e-03	4.838210e-04	7.735474e-04
63            	-1.492686e-04	1.146135e+00	1.576700e-03	6.390815e-04	9.376188e-04
63.3          	-1.185116e-04	1.150169e+00	1.697969e-03	7.304728e-04	9.674959e-04
63.6          	-1.259424e-04	1.150452e+00	1.924231e-03	8.361729e-04	1.088058e-03
63.9          	-1.042024e-04	1.149482e+00	2.135855e-03	9.637251e-04	1.172130e-03
64.2          	-8.926284e-05	1.146982e+00	2.392574e-03	1.107024e-03	1.285550e-03
64.5          	-7.955158e-05	1.140455e+00	2.538493e-03	1.189695e-03	1.348798e-03
64.8          	-5.346768e-05	1.127044e+00	2.625506e-03	1.259285e-03	1.366221e-03
65.1          	-5.834579e-05	1.108173e+00	2.742393e-03	1.312851e-03	1.429542e-03
65.4          	-7.067495e-05	1.085489e+00	2.855222e-03	1.356936e-03	1.498286e-03
65.7          	-8.455483e-05	1.062023e+00	2.953104e-03	1.391997e-03	1.561107e-03
66            	-8.951653e-05	1.041581e+00	3.050065e-03	1.435516e-03	1.614549e-03
66.3          	-1.027826e-04	1.024613e+00	3.236942e-03	1.515689e-03	1.721254e-03
66.6          	-1.146224e-04	1.009681e+00	3.278366e-03	1.524561e-03	1.753805e-03
66.9          	-1.146858e-04	9.967581e-01	3.282293e-03	1.526461e-03	1.755832e-03
67.2          	-1.170550e-04	9.851966e-01	3.283541e-03	1.524716e-03	1.758826e-03
67.5          	-1.299496e-04	9.781946e-01	3.257452e-03	1.498776e-03	1.758675e-03
67.8          	-1.470577e-04	9.796844e-01	3.200688e-03	1.453286e-03	1.747402e-03
68.1          	-1.701532e-04	9.903836e-01	3.232445e-03	1.446069e-03	1.786376e-03
68.4          	-2.277745e-04	1.009317e+00	3.644403e-03	1.594427e-03	2.049976e-03
68.7          	-2.307829e-04	1.031276e+00	3.126075e-03	1.332254e-03	1.793820e-03
69            	-1.915338e-04	1.052504e+00	3.363279e-03	1.490106e-03	1.873173e-03
69.3          	-2.165649e-04	1.071858e+00	3.272204e-03	1.419537e-03	1.852667e-03
69.6          	-2.167204e-04	1.088878e+00	3.362371e-03	1.464465e-03	1.897906e-03
69.9          	-2.684960e-04	1.105026e+00	2.951774e-03	1.207391e-03	1.744383e-03
70.2          	-2.962764e-04	1.119685e+00	3.082015e-03	1.244731e-03	1.837284e-03
70.5          	-3.239807e-04	1.130852e+00	3.218730e-03	1.285384e-03	1.933346e-03
70.8          	-3.361779e-04	1.135909e+00	2.819891e-03	1.073767e-03	1.746123e-03
71.1          	-3.817249e-04	1.131805e+00	2.760324e-03	9.984372e-04	1.761887e-03
71.4          	-4.219474e-04	1.122331e+00	2.280210e-03	7.181578e-04	1.562053e-03
71.7          	-4.339581e-04	1.111972e+00	2.180959e-03	6.565215e-04	1.524438e-03
72            	-4.464722e-04	1.101474e+00	2.391504e-03	7.492798e-04	1.642224e-03
72.3          	-4.273345e-04	1.089936e+00	2.396794e-03	7.710627e-04	1.625732e-03
72.6          	-4.392473e-04	1.073174e+00	2.339589e-03	7.305470e-04	1.609042e-03
72.9          	-4.165248e-04	1.050034e+00	2.304570e-03	7.357603e-04	1.568810e-03
73.2          	-3.682997e-04	1.022979e+00	2.257709e-03	7.605549e-04	1.497154e-03
73.5          	-3.459382e-04	9.962865e-01	2.191518e-03	7.498206e-04	1.441697e-03
73.8          	-3.226571e-04	9.727248e-01	2.149329e-03	7.520073e-04	1.397322e-03
74.1          	-2.628074e-04	9.561317e-01	2.037138e-03	7.557617e-04	1.281376e-03
74.4          	-1.540849e-04	9.471476e-01	2.109984e-03	9.009071e-04	1.209077e-03
74.7          	-4.036399e-05	9.443854e-01	2.642240e-03	1.280756e-03	1.361484e-03
75            	-3.631723e-05	9.471501e-01	1.690847e-03	8.091063e-04	8.817408e-04
75.3          	-5.341669e-06	9.548863e-01	1.454729e-03	7.220227e-04	7.327061e-04
75.6          	3.540473e-05	9.676633e-01	1.135786e-03	6.032979e-04	5.324885e-04
75.9          	4.498701e-05	9.850578e-01	7.590661e-04	4.245201e-04	3.345460e-04
76.2          	3.245256e-05	1.007960e+00	2.219098e-04	1.434074e-04	7.850232e-05
76.5          	4.594911e-06	1.034171e+00	-3.921629e-04	-1.914866e-04	-2.006764e-04
76.8          	-1.060218e-05	1.058806e+00	-8.767305e-04	-4.489674e-04	-4.277631e-04
77.1          	1.935706e-05	1.078802e+00	-1.162344e-03	-5.618149e-04	-6.005290e-04
77.4          	-8.073433e-05	1.092899e+00	-2.256127e-03	-1.208798e-03	-1.047329e-03
77.7          	-1.266616e-04	1.103164e+00	-3.068329e-03	-1.660826e-03	-1.407503e-03
78            	-1.294017e-04	1.109570e+00	-3.811832e-03	-2.035318e-03	-1.776514e-03
78.3          	-1.446055e-04	1.111946e+00	-4.593442e-03	-2.441327e-03	-2.152116e-03
78.6          	-2.353173e-04	1.110319e+00	-5.149190e-03	-2.809912e-03	-2.339278e-03
78.9          	-1.862008e-04	1.101929e+00	-6.004568e-03	-3.188485e-03	-2.816083e-03
79.2          	-2.254518e-04	1.088389e+00	-6.457284e-03	-3.454094e-03	-3.003190e-03
79.5          	-1.650539e-04	1.071965e+00	-6.954485e-03	-3.642296e-03	-3.312189e-03
79.8          	-2.733403e-05	1.053725e+00	-6.936321e-03	-3.495494e-03	-3.440826e-03
80.1          	3.194935e-05	1.034225e+00	-7.403919e-03	-3.670010e-03	-3.733909e-03
80.4          	8.764033e-05	1.014054e+00	-7.627847e-03	-3.726283e-03	-3.901564e-03
80.7          	1.760462e-04	9.929612e-01	-7.520258e-03	-3.584083e-03	-3.936175e-03
81            	2.085936e-04	9.705964e-01	-8.062968e-03	-3.822890e-03	-4.240078e-03
81.3          	2.582280e-04	9.491818e-01	-8.371036e-03	-3.927290e-03	-4.443746e-03
81.6          	3.372228e-04	9.307489e-01	-8.659605e-03	-3.992580e-03	-4.667025e-03
81.9          	3.753140e-04	9.180075e-01	-9.080130e-03	-4.164751e-03	-4.915379e-03
82.2          	3.708404e-04	9.142699e-01	-9.981778e-03	-4.620049e-03	-5.361729e-03
82.5          	3.580233e-04	9.209120e-01	-1.032368e-02	-4.803819e-03	-5.519866e-03
82.8          	3.649868e-04	9.355423e-01	-1.143632e-02	-5.353174e-03	-6.083148e-03
83.1          	2.815462e-04	9.538355e-01	-1.149763e-02	-5.467270e-03	-6.030362e-03
83.4          	2.249422e-04	9.737412e-01	-1.190917e-02	-5.729641e-03	-6.179525e-03
83.7          	2.409658e-04	9.944662e-01	-1.229442e-02	-5.906245e-03	-6.388177e-03
84            	2.054583e-04	1.016683e+00	-1.286768e-02	-6.228380e-03	-6.639296e-03
84.3          	2.509705e-04	1.040405e+00	-1.314687e-02	-6.322464e-03	-6.824405e-03
84.6          	2.860112e-04	1.061849e+00	-1.343125e-02	-6.429613e-03	-7.001636e-03
84.9          	3.178553e-04	1.079042e+00	-1.369702e-02	-6.530655e-03	-7.166366e-03
85.2          	3.505655e-04	1.088825e+00	-1.350292e-02	-6.400895e-03	-7.102026e-03
85.5          	4.855032e-04	1.090968e+00	-1.401364e-02	-6.521318e-03	-7.492324e-03
85.8          	6.086590e-04	1.089458e+00	-1.377194e-02	-6.277313e-03	-7.494631e-03
86.1          	7.711192e-04	1.085334e+00	-1.393878e-02	-6.198272e-03	-7.740510e-03
86.4          	9.455814e-04	1.079102e+00	-1.369841e-02	-5.903621e-03	-7.794784e-03
86.7          	1.186259e-03	1.069407e+00	-1.330993e-02	-5.468704e-03	-7.841221e-03
87            	1.369550e-03	1.055244e+00	-1.252449e-02	-4.892696e-03	-7.631796e-03
87.3          	1.391254e-03	1.035080e+00	-1.252724e-02	-4.872366e-03	-7.654874e-03
87.6          	1.382410e-03	1.010512e+00	-1.278463e-02	-5.009903e-03	-7.774723e-03
87.9          	1.318283e-03	9.857909e-01	-1.320947e-02	-5.286449e-03	-7.923016e-03
88.2          	1.175004e-03	9.629899e-01	-1.428206e-02	-5.966025e-03	-8.316033e-03
88.5          	1.035097e-03	9.422542e-01	-1.483454e-02	-6.382174e-03	-8.452367e-03
88.8          	8.511790e-04	9.244635e-01	-1.594038e-02	-7.119012e-03	-8.821370e-03
89.1          	4.340692e-04	9.105944e-01	-1.624714e-02	-7.689500e-03	-8.557638e-03
89.4          	1.170065e-04	9.009440e-01	-1.692542e-02	-8.345702e-03	-8.579715e-03
89.7          	-1.727299e-04	8.965539e-01	-1.730212e-02	-8.823788e-03	-8.478328e-03
90            	-4.798083e-04	8.992429e-01	-1.759903e-02	-9.279326e-03	-8.319709e-03
90.3          	-6.823853e-04	9.108812e-01	-1.761141e-02	-9.488089e-03	-8.123319e-03
90.6          	-8.267270e-04	9.310956e-01	-1.717289e-02	-9.413170e-03	-7.759716e-03
90.9          	-9.222517e-04	9.554947e-01	-1.657474e-02	-9.209624e-03	-7.365121e-03
91.2          	-8.123700e-04	9.805681e-01	-1.520831e-02	-8.416524e-03	-6.791784e-03
91.5          	-5.185967e-04	1.005249e+00	-1.312104e-02	-7.079116e-03	-6.041922e-03
91.8          	-1.628737e-04	1.027661e+00	-1.083652e-02	-5.581136e-03	-5.255388e-03
92.1          	2.049065e-04	1.048188e+00	-8.858841e-03	-4.224514e-03	-4.634327e-03
92.4          	4.224379e-04	1.066380e+00	-7.165950e-03	-3.160537e-03	-4.005413e-03
92.7          	7.693517e-04	1.079501e+00	-5.105313e-03	-1.783305e-03	-3.322008e-03
93            	1.101108e-03	1.086153e+00	-1.841126e-03	1.805448e-04	-2.021671e-03
93.3          	1.362373e-03	1.085687e+00	9.501824e-04	1.837464e-03	-8.872821e-04
93.6          	1.491059e-03	1.079253e+00	3.585509e-03	3.283814e-03	3.016951e-04
93.9          	1.654466e-03	1.069889e+00	5.821361e-03	4.565147e-03	1.256215e-03
94.2          	1.987496e-03	1.059809e+00	8.826015e-03	6.400503e-03	2.425512e-03
94.5          	2.059858e-03	1.048304e+00	1.070293e-02	7.411322e-03	3.291606e-03
94.8          	1.770115e-03	1.031941e+00	1.121797e-02	7.379102e-03	3.838872e-03
95.1          	1.418744e-03	1.009248e+00	1.168732e-02	7.262403e-03	4.424915e-03
95.4          	1.088165e-03	9.831569e-01	1.209126e-02	7.133795e-03	4.957465e-03
95.7          	6.030163e-04	9.550149e-01	1.212652e-02	6.666276e-03	5.460243e-03
96            	-1.592337e-05	9.261557e-01	1.230995e-02	6.139049e-03	6.170896e-03
96.3          	-4.468781e-04	9.005936e-01	1.283887e-02	5.972558e-03	6.866315e-03
96.6          	-1.083355e-03	8.820806e-01	1.327066e-02	5.551977e-03	7.718687e-03
96.9          	-1.707810e-03	8.708097e-01	1.411632e-02	5.350350e-03	8.765969e-03
97.2          	-2.194558e-03	8.662988e-01	1.436654e-02	4.988712e-03	9.377828e-03
97.5          	-2.577732e-03	8.699221e-01	1.603533e-02	5.439934e-03	1.059540e-02
97.8          	-2.928922e-03	8.805739e-01	1.746803e-02	5.805094e-03	1.166294e-02
98.1          	-3.136950e-03	8.963110e-01	1.962694e-02	6.676521e-03	1.295042e-02
98.4          	-3.019780e-03	9.169682e-01	2.256936e-02	8.264899e-03	1.430446e-02
98.7          	-2.629404e-03	9.430712e-01	2.594438e-02	1.034279e-02	1.560160e-02
99            	-2.199851e-03	9.710476e-01	3.008799e-02	1.284414e-02	1.724385e-02
99.3          	-1.752749e-03	9.988442e-01	3.380641e-02	1.515045e-02	1.865595e-02
99.6          	-1.296468e-03	1.023523e+00	3.711970e-02	1.726338e-02	1.985632e-02
99.9          	-9.213034e-04	1.043866e+00	4.106099e-02	1.960919e-02	2.145180e-02
100.2         	-4.262689e-04	1.059408e+00	4.469732e-02	2.192239e-02	2.277493e-02
100.5         	-2.402235e-04	1.070281e+00	4.793919e-02	2.372937e-02	2.420982e-02
100.8         	-2.385487e-05	1.076450e+00	5.164662e-02	2.579946e-02	2.584717e-02
101.1         	-8.730448e-05	1.076357e+00	5.436116e-02	2.709328e-02	2.726789e-02
101.4         	-5.057183e-04	1.069314e+00	5.646651e-02	2.772754e-02	2.873898e-02
101.7         	-9.342605e-04	1.057637e+00	5.902139e-02	2.857644e-02	3.044496e-02
102           	-1.348775e-03	1.044087e+00	6.145849e-02	2.938047e-02	3.207802e-02
102.3         	-2.278353e-03	1.028737e+00	6.237905e-02	2.891117e-02	3.346788e-02
102.6         	-2.945465e-03	1.008400e+00	6.307072e-02	2.858990e-02	3.448083e-02
102.9         	-3.099078e-03	9.840179e-01	6.385064e-02	2.882624e-02	3.502440e-02
103.2         	-3.362777e-03	9.585250e-01	6.459441e-02	2.893443e-02	3.565998e-02
103.5         	-3.732745e-03	9.307244e-01	6.485911e-02	2.869681e-02	3.616230e-02
103.8         	-3.597002e-03	9.017303e-01	6.663951e-02	2.972275e-02	3.691676e-02
104.1         	-3.625444e-03	8.776058e-01	6.956778e-02	3.115845e-02	3.840934e-02
104.4         	-3.783062e-03	8.594150e-01	7.181986e-02	3.212687e-02	3.969299e-02
104.7         	-3.371063e-03	8.470844e-01	7.546440e-02	3.436114e-02	4.110326e-02
105           	-2.455304e-03	8.449453e-01	7.931069e-02	3.720004e-02	4.211065e-02
105.3         	-1.499794e-03	8.538622e-01	8.149623e-02	3.924832e-02	4.224791e-02
105.6         	-7.219501e-04	8.695082e-01	8.268855e-02	4.062233e-02	4.206623e-02
105.9         	-6.806132e-05	8.891282e-01	8.421245e-02	4.203816e-02	4.217429e-02
106.2         	5.082795e-04	9.122234e-01	8.437146e-02	4.269401e-02	4.167745e-02
106.5         	1.123104e-03	9.381868e-01	8.459392e-02	4.342006e-02	4.117386e-02
106.8         	1.370676e-03	9.667491e-01	8.378937e-02	4.326536e-02	4.052401e-02
107.1         	9.479881e-04	9.960158e-01	8.218156e-02	4.203877e-02	4.014279e-02
107.4         	3.256736e-04	1.022921e+00	7.949539e-02	4.007337e-02	3.942202e-02
107.7         	1.369586e-04	1.045420e+00	7.527283e-02	3.777338e-02	3.749946e-02
108           	2.248259e-04	1.061739e+00	7.161617e-02	3.603291e-02	3.558326e-02